 Gaussian 16, Revision A.03,
 Gaussian 16:  ES64L-G16RevA.03 25-Dec-2016

 -----------------------------------------------
 #p PBE1PBE/6-311++G(d,p) density=current nosymm
 -----------------------------------------------

 ------------
 1 3 5-DFB SP
 ------------
 Symbolic Z-matrix:
 Charge =  0 Multiplicity = 1

                          Input orientation:
 ---------------------------------------------------------------------
 Center     Atomic      Atomic             Coordinates (Angstroms)
 Number     Number       Type             X           Y           Z
 ---------------------------------------------------------------------
      1          6           0        1.178499    0.680466    0.000000
      2          6           0        1.217502   -0.702950    0.000000
      3          6           0        0.000000   -1.360916    0.000000
      4          6           0       -1.217502   -0.702950    0.000000
      5          6           0       -1.178499    0.680466    0.000000
      6          6           0        0.000000    1.406036    0.000000
      7          1           0        2.154583   -1.243860    0.000000
      8          1           0       -2.154583   -1.243860    0.000000
      9          1           0        0.000000    2.488014    0.000000
     10          9           0        0.000000   -2.698573    0.000000
     11          9           0       -2.337080    1.349064    0.000000
     12          9           0        2.337080    1.349064    0.000000
 ---------------------------------------------------------------------

 SCF Done:  E(RPBE1PBE) =  -529.555656752     A.U. after   12 cycles

 Alpha  occ. eigenvalues --  -24.80333 -24.80333 -24.80333 -10.34438 -10.34437
 Alpha  occ. eigenvalues --  -10.34436 -10.25567 -10.25566 -10.25565  -1.28953
 Alpha  occ. eigenvalues --   -1.28876  -1.28876  -0.92811  -0.81119  -0.81117
 Alpha  occ. eigenvalues --   -0.68201  -0.68200  -0.61777  -0.58187  -0.54966
 Alpha  occ. eigenvalues --   -0.54371  -0.54368  -0.52472  -0.50555  -0.50555
 Alpha  occ. eigenvalues --   -0.47494  -0.47492  -0.42172  -0.42171  -0.40815
 Alpha  occ. eigenvalues --   -0.38694  -0.28693  -0.28691
 Alpha virt. eigenvalues --   -0.02723  -0.02722   0.00324   0.02182   0.02183
 Alpha virt. eigenvalues --    0.03468   0.04975   0.04975   0.05492   0.08621
 Alpha virt. eigenvalues --    0.09552   0.09553   0.11541   0.12743   0.12784

 Mulliken charges:
               1
     1  C   -0.689954
     2  C    0.559160
     3  C   -0.690200
     4  C    0.559160
     5  C   -0.689954
     6  C    0.559189
     7  H    0.275673
     8  H    0.275673
     9  H    0.275677
    10  F   -0.144823
    11  F   -0.144802
    12  F   -0.144802
 Sum of Mulliken charges =  -0.00000

 Dipole moment (field-independent basis, Debye):
    X=              0.0000    Y=              0.0006    Z=             -0.0000  Tot=              0.0006
 Quadrupole moment (field-independent basis, Debye-Ang):
   XX=            -50.7436   YY=            -50.7406   ZZ=            -50.3413
   XY=             -0.0000   XZ=             -0.0000   YZ=             -0.0000

 Normal termination of Gaussian 16 at Tue Jan 21 12:56:24 2025.
