 Gaussian 16, Revision A.03,
 Gaussian 16:  ES64L-G16RevA.03 25-Dec-2016

 --------------------------------------------------------
 #p opt freq PBE1PBE/6-311++G(d,p) density=current nosymm
 --------------------------------------------------------

 ------------
 1 3 5-DFB SP
 ------------
 Symbolic Z-matrix:
 Charge =  1 Multiplicity = 2

 SCF Done:  E(UPBE1PBE) =  -529.195607652     A.U. after   16 cycles
 SCF Done:  E(UPBE1PBE) =  -529.204590551     A.U. after   15 cycles
 SCF Done:  E(UPBE1PBE) =  -529.205223269     A.U. after   13 cycles
 SCF Done:  E(UPBE1PBE) =  -529.205245094     A.U. after   11 cycles
 SCF Done:  E(UPBE1PBE) =  -529.205246634     A.U. after   10 cycles
 Optimization completed.
    -- Stationary point found.
 Normal termination of Gaussian 16 at Thu Jan 30 13:06:41 2025.

 ----------------------------------------------------------------------
 #P Geom=AllCheck Guess=TCheck SCRF=Check GenChk UPBE1PBE/6-311++G(d,p)
  Freq
 ----------------------------------------------------------------------

 Structure from the checkpoint file:  "1-3-5-TFB-CAT.chk"
 ------------
 1 3 5-DFB SP
 ------------
 Charge =  1 Multiplicity = 2

                          Input orientation:
 ---------------------------------------------------------------------
 Center     Atomic      Atomic             Coordinates (Angstroms)
 Number     Number       Type             X           Y           Z
 ---------------------------------------------------------------------
      1          6           0        1.164603    0.715994   -0.000000
      2          6           0        1.201443   -0.723873   -0.000000
      3          6           0       -0.000000   -1.410595   -0.000000
      4          6           0       -1.201443   -0.723873   -0.000000
      5          6           0       -1.164603    0.715994    0.000000
      6          6           0       -0.000000    1.455150   -0.000000
      7          1           0        2.157924   -1.238028   -0.000000
      8          1           0       -2.157924   -1.238028    0.000000
      9          1           0        0.000000    2.538610    0.000000
     10          9           0       -0.000000   -2.719102    0.000000
     11          9           0       -2.310531    1.313875    0.000000
     12          9           0        2.310531    1.313875    0.000000
 ---------------------------------------------------------------------

 SCF Done:  E(UPBE1PBE) =  -529.205246634     A.U. after    1 cycles

 Alpha  occ. eigenvalues --  -25.03233 -25.03233 -24.99625 -10.59307 -10.59306
 Alpha  occ. eigenvalues --  -10.55745 -10.50641 -10.50640 -10.46792  -1.53041
 Alpha  occ. eigenvalues --   -1.52989  -1.49073  -1.15311  -1.03776  -1.03618
 Alpha  occ. eigenvalues --   -0.90802  -0.90008  -0.83478  -0.80814  -0.76737
 Alpha  occ. eigenvalues --   -0.76710  -0.75905  -0.75609  -0.73963  -0.70724
 Alpha  occ. eigenvalues --   -0.69203  -0.68508  -0.63501  -0.63449  -0.61329
 Alpha  occ. eigenvalues --   -0.60561  -0.52214  -0.50695
 Alpha virt. eigenvalues --   -0.27263  -0.23502  -0.15044  -0.13051  -0.10955
 Alpha virt. eigenvalues --   -0.10760  -0.10335  -0.10311  -0.09789  -0.07686
 Alpha virt. eigenvalues --   -0.07233  -0.04912  -0.04428  -0.02096  -0.01918

  Beta  occ. eigenvalues --  -25.02991 -25.02991 -24.99694 -10.59026 -10.59026
  Beta  occ. eigenvalues --  -10.56006 -10.50019 -10.50019 -10.46905  -1.52531
  Beta  occ. eigenvalues --   -1.52479  -1.49227  -1.14262  -1.03494  -1.01601
  Beta  occ. eigenvalues --   -0.90102  -0.89565  -0.83291  -0.80528  -0.76461
  Beta  occ. eigenvalues --   -0.76297  -0.75555  -0.73787  -0.72113  -0.70832
  Beta  occ. eigenvalues --   -0.69057  -0.68199  -0.63198  -0.63078  -0.61133
  Beta  occ. eigenvalues --   -0.57642  -0.49879
  Beta virt. eigenvalues --   -0.41326  -0.23144  -0.22336  -0.14704  -0.12867
  Beta virt. eigenvalues --   -0.10582  -0.10310  -0.10281  -0.10061  -0.09607
  Beta virt. eigenvalues --   -0.06947  -0.06008  -0.04345  -0.04340  -0.02051

 Mulliken charges and spin densities:
               1          2
     1  C   -0.578935   0.228001
     2  C    0.648125   0.393272
     3  C   -0.725319  -0.162048
     4  C    0.648125   0.393272
     5  C   -0.578935   0.228001
     6  C    0.599426  -0.120157
     7  H    0.361395  -0.026297
     8  H    0.361395  -0.026297
     9  H    0.346763   0.001054
    10  F   -0.068839  -0.010266
    11  F   -0.006600   0.050733
    12  F   -0.006600   0.050733
 Sum of Mulliken charges =   1.00000   1.00000

 Dipole moment (field-independent basis, Debye):
    X=              0.0000    Y=              0.3895    Z=             -0.0000  Tot=              0.3895
 Quadrupole moment (field-independent basis, Debye-Ang):
   XX=            -35.1911   YY=            -38.4578   ZZ=            -46.2339
   XY=              0.0000   XZ=             -0.0000   YZ=              0.0000

  Exact polarizability:  86.595  -0.000  72.595  -0.000   0.000  32.060
 Approx polarizability: 152.523  -0.000 105.179  -0.000   0.000  46.005

 ******    1 imaginary frequencies (negative Signs) ******

                      1                      2                      3
                      A                      A                      A
 Frequencies --   -379.7244               180.4072               207.4896
 Red. masses --     11.4118                11.7265                 4.1564
 Frc consts  --      0.9695                 0.2249                 0.1054
 IR Inten    --      0.0505                 5.5426                 0.0000

                      4                      5                      6
                      A                      A                      A
 Frequencies --    215.9352               329.5722               345.5562
 Red. masses --      4.7869                16.0696                14.1587
 Frc consts  --      0.1315                 1.0284                 0.9961
 IR Inten    --      3.1207                 6.4839                 6.6695

                      7                      8                      9
                      A                      A                      A
 Frequencies --    487.8343               491.0477               568.5981
 Red. masses --      2.5831                 8.1825                 4.2613
 Frc consts  --      0.3622                 1.1625                 0.8117
 IR Inten    --      7.9396                11.0908                 0.0724

                     10                     11                     12
                      A                      A                      A
 Frequencies --    593.7216               629.0076               632.1340
 Red. masses --     16.8765                 3.2399                 4.9716
 Frc consts  --      3.5051                 0.7553                 1.1705
 IR Inten    --      0.6376                 4.5235                 0.0000

                     13                     14                     15
                      A                      A                      A
 Frequencies --    837.7095               862.8193               888.1090
 Red. masses --      1.8949                 1.3833                 3.0126
 Frc consts  --      0.7835                 0.6067                 1.4000
 IR Inten    --     39.7480                45.2230                23.9667

                     16                     17                     18
                      A                      A                      A
 Frequencies --    889.1561               994.6149              1006.5437
 Red. masses --      1.4744                 5.7313                 3.4311
 Frc consts  --      0.6868                 3.3405                 2.0481
 IR Inten    --      0.0000                 0.3550                18.5534

                     19                     20                     21
                      A                      A                      A
 Frequencies --   1036.5586              1208.4572              1228.4856
 Red. masses --      2.1052                 2.3552                 2.6939
 Frc consts  --      1.3327                 2.0265                 2.3954
 IR Inten    --     23.8229               107.1571               145.8787

                     22                     23                     24
                      A                      A                      A
 Frequencies --   1238.0865              1440.6816              1471.6280
 Red. masses --      1.2759                 6.3116                11.8869
 Frc consts  --      1.1523                 7.7184                15.1676
 IR Inten    --      0.3390                 6.5618                 0.6645

                     25                     26                     27
                      A                      A                      A
 Frequencies --   1521.2588              1564.5753              1629.4767
 Red. masses --      4.6288                 6.4667                 6.4863
 Frc consts  --      6.3114                 9.3266                10.1471
 IR Inten    --    678.5854                52.3631               288.8381

                     28                     29                     30
                      A                      A                      A
 Frequencies --   3223.3663              3223.8849              3242.3795
 Red. masses --      1.0951                 1.0932                 1.0972
 Frc consts  --      6.7036                 6.6943                 6.7961
 IR Inten    --     20.2846                46.4090                47.8733

 - Thermochemistry -
 -------------------
 Temperature   298.150 Kelvin.  Pressure   1.00000 Atm.
 Atom     1 has atomic number  6 and mass  12.00000

 Molecular mass:   132.01868 amu.
 Principal axes and moments of inertia in atomic units:
                           1         2         3
     Eigenvalues --   997.857281034.876532032.73382
           X           -0.00000   1.00000  -0.00000
           Y            1.00000   0.00000   0.00000
           Z           -0.00000   0.00000   1.00000
 This molecule is an asymmetric top.
 Rotational symmetry number  1.
 Warning -- assumption of classical behavior for rotation
           may cause significant error
 Rotational temperatures (Kelvin)      0.08680     0.08369     0.04261
 Rotational constants (GHZ):           1.80862     1.74392     0.88784
    1 imaginary frequencies ignored.
 Zero-point vibrational energy     192533.5 (Joules/Mol)
                                   46.01662 (Kcal/Mol)
 Warning -- explicit consideration of   9 degrees of freedom as
           vibrations may cause significant error
 Vibrational temperatures:    259.57   298.53   310.68   474.18   497.18
          (Kelvin)            701.88   706.51   818.09   854.23   905.00
                              909.50  1205.28  1241.40  1277.79  1279.30
                             1431.03  1448.19  1491.38  1738.70  1767.52
                             1781.33  2072.82  2117.34  2188.75  2251.07
                             2344.45  4637.71  4638.45  4665.06

 Zero-point correction=                           0.073332 (Hartree/Particle)
 Thermal correction to Energy=                    0.080103
 Thermal correction to Enthalpy=                  0.081047
 Thermal correction to Gibbs Free Energy=         0.041094
 Sum of electronic and zero-point Energies=           -529.131914
 Sum of electronic and thermal Energies=              -529.125144
 Sum of electronic and thermal Enthalpies=            -529.124199
 Sum of electronic and thermal Free Energies=         -529.164153

                     E (Thermal)             CV                S
                      KCal/Mol        Cal/Mol-Kelvin    Cal/Mol-Kelvin
 Total                   50.265             25.487             84.090
 Electronic               0.000              0.000              1.377
 Translational            0.889              2.981             40.546
 Rotational               0.889              2.981             29.130
 Vibrational             48.488             19.526             13.036
 Vibration     1          0.629              1.866              2.324
 Vibration     2          0.641              1.829              2.066
 Vibration     3          0.645              1.817              1.993
 Vibration     4          0.712              1.616              1.262
 Vibration     5          0.724              1.584              1.186
 Vibration     6          0.844              1.277              0.689
 Vibration     7          0.847              1.270              0.681
 Vibration     8          0.925              1.099              0.507
 Vibration     9          0.951              1.045              0.461

 Optimization completed.
    -- Stationary point found.
 Normal termination of Gaussian 16 at Thu Jan 30 13:13:44 2025.
