 Gaussian 16, Revision A.03,
 Gaussian 16:  ES64L-G16RevA.03 25-Dec-2016

 --------------------------------------------------------
 #p opt freq PBE1PBE/6-311++G(d,p) density=current nosymm
 --------------------------------------------------------

 ------------
 1 3 5-DFB SP
 ------------
 Symbolic Z-matrix:
 Charge = -1 Multiplicity = 2

 SCF Done:  E(UPBE1PBE) =  -529.531416158     A.U. after   32 cycles
 SCF Done:  E(UPBE1PBE) =  -529.531468498     A.U. after   22 cycles
 SCF Done:  E(UPBE1PBE) =  -529.531474795     A.U. after   24 cycles
 Optimization completed.
    -- Stationary point found.
 Normal termination of Gaussian 16 at Thu Jan 30 13:07:47 2025.

 ----------------------------------------------------------------------
 #P Geom=AllCheck Guess=TCheck SCRF=Check GenChk UPBE1PBE/6-311++G(d,p)
  Freq
 ----------------------------------------------------------------------

 Structure from the checkpoint file:  "1-3-5-TFB-ANI.chk"
 ------------
 1 3 5-DFB SP
 ------------
 Charge = -1 Multiplicity = 2

                          Input orientation:
 ---------------------------------------------------------------------
 Center     Atomic      Atomic             Coordinates (Angstroms)
 Number     Number       Type             X           Y           Z
 ---------------------------------------------------------------------
      1          6           0        1.176154    0.679056   -0.000000
      2          6           0        1.220414   -0.704612   -0.000000
      3          6           0       -0.000000   -1.358113   -0.000000
      4          6           0       -1.220414   -0.704612   -0.000000
      5          6           0       -1.176154    0.679056   -0.000000
      6          6           0       -0.000000    1.409235   -0.000000
      7          1           0        2.157264   -1.245478    0.000000
      8          1           0       -2.157264   -1.245478   -0.000000
      9          1           0        0.000000    2.491015    0.000000
     10          9           0       -0.000000   -2.698489    0.000000
     11          9           0       -2.336965    1.349210    0.000000
     12          9           0        2.336965    1.349210    0.000000
 ---------------------------------------------------------------------

 SCF Done:  E(UPBE1PBE) =  -529.531474795     A.U. after   12 cycles

 Alpha  occ. eigenvalues --  -24.68736 -24.68735 -24.68735 -10.22800 -10.22800
 Alpha  occ. eigenvalues --  -10.22799 -10.13851 -10.13850 -10.13849  -1.17270
 Alpha  occ. eigenvalues --   -1.17194  -1.17193  -0.81137  -0.69459  -0.69459
 Alpha  occ. eigenvalues --   -0.56548  -0.56547  -0.50159  -0.46490  -0.43322
 Alpha  occ. eigenvalues --   -0.42661  -0.42660  -0.40843  -0.38942  -0.38941
 Alpha  occ. eigenvalues --   -0.35871  -0.35870  -0.30606  -0.30605  -0.29209
 Alpha  occ. eigenvalues --   -0.27089  -0.17062  -0.17062   0.05139
 Alpha virt. eigenvalues --    0.07902   0.07902   0.08789   0.08789   0.13011
 Alpha virt. eigenvalues --    0.13012   0.13271   0.14596   0.17579   0.18429
 Alpha virt. eigenvalues --    0.18429   0.19867   0.21058   0.21152   0.21152

  Beta  occ. eigenvalues --  -24.68733 -24.68732 -24.68732 -10.22804 -10.22804
  Beta  occ. eigenvalues --  -10.22804 -10.13822 -10.13822 -10.13821  -1.17261
  Beta  occ. eigenvalues --   -1.17185  -1.17185  -0.81122  -0.69426  -0.69426
  Beta  occ. eigenvalues --   -0.56514  -0.56514  -0.50140  -0.46474  -0.43213
  Beta  occ. eigenvalues --   -0.42643  -0.42643  -0.40816  -0.38926  -0.38926
  Beta  occ. eigenvalues --   -0.35819  -0.35818  -0.30567  -0.30566  -0.29193
  Beta  occ. eigenvalues --   -0.27053  -0.17022  -0.17022
  Beta virt. eigenvalues --    0.08839   0.08839   0.08931   0.10381   0.10382
  Beta virt. eigenvalues --    0.13845   0.13846   0.13933   0.15103   0.18415
  Beta virt. eigenvalues --    0.18656   0.18657   0.20147   0.22065   0.22313

 Mulliken charges and spin densities:
               1          2
     1  C    7.847224  -8.552841
     2  C   -6.524499   7.079419
     3  C    7.844011  -8.549546
     4  C   -6.524499   7.079419
     5  C    7.847226  -8.552842
     6  C   -6.523919   7.078999
     7  H   -1.476798   1.771934
     8  H   -1.476799   1.771934
     9  H   -1.479061   1.774286
    10  F   -0.177651   0.033075
    11  F   -0.177617   0.033081
    12  F   -0.177617   0.033081
 Sum of Mulliken charges =  -1.00000   1.00000

 Dipole moment (field-independent basis, Debye):
    X=              0.0000    Y=             -0.0082    Z=             -0.0000  Tot=              0.0082
 Quadrupole moment (field-independent basis, Debye-Ang):
   XX=            -99.2584   YY=            -99.2846   ZZ=            -71.7148
   XY=             -0.0000   XZ=             -0.0000   YZ=             -0.0000

  Exact polarizability:4140.540  -4.0264174.754  -0.592  -0.105 252.363
 Approx polarizability:2496.016   0.0002498.191   0.000   0.000 226.668

                      1                      2                      3
                      A                      A                      A
 Frequencies --    230.6187               249.1627               259.5364
 Red. masses --     14.3992                 4.0651                 4.3631
 Frc consts  --      0.4512                 0.1487                 0.1732
 IR Inten    --     14.6434                 0.1698                 0.0155

                      4                      5                      6
                      A                      A                      A
 Frequencies --    326.4849               326.5090               402.4837
 Red. masses --     14.5722                14.5857                 6.6815
 Frc consts  --      0.9152                 0.9162                 0.6377
 IR Inten    --    334.7791               333.2498                 0.9016

                      7                      8                      9
                      A                      A                      A
 Frequencies --    412.0943               502.9569               505.2947
 Red. masses --      6.1105                 8.2741                 8.2821
 Frc consts  --      0.6114                 1.2332                 1.2459
 IR Inten    --      0.5379              1679.1693              1762.9562

                     10                     11                     12
                      A                      A                      A
 Frequencies --    562.5530               587.2276               642.1708
 Red. masses --      4.3408                17.3578                 1.5270
 Frc consts  --      0.8094                 3.5266                 0.3710
 IR Inten    --      1.6927                 0.0496               220.4554

                     13                     14                     15
                      A                      A                      A
 Frequencies --    871.8797               872.7625               989.8265
 Red. masses --      1.3739                 1.3793                 2.5231
 Frc consts  --      0.6153                 0.6190                 1.4565
 IR Inten    --      0.0615                 3.2705              5904.3295

                     16                     17                     18
                      A                      A                      A
 Frequencies --   1014.2653              1017.3213              1041.3984
 Red. masses --      2.7214                 2.7979                 6.1705
 Frc consts  --      1.6495                 1.7061                 3.9428
 IR Inten    --    185.2244               189.7491                 0.7969

                     19                     20                     21
                      A                      A                      A
 Frequencies --   1155.8869              1156.6028              1226.2920
 Red. masses --      1.8402                 1.8735                 1.3094
 Frc consts  --      1.4486                 1.4766                 1.1601
 IR Inten    --    147.5818               122.0126                 0.0454

                     22                     23                     24
                      A                      A                      A
 Frequencies --   1384.0015              1391.7814              1503.6094
 Red. masses --      7.9163                12.5062                 4.5349
 Frc consts  --      8.9340                14.2731                 6.0407
 IR Inten    --      0.1008                 0.1145               791.5048

                     25                     26                     27
                      A                      A                      A
 Frequencies --   1507.8631              1679.7838              1694.2345
 Red. masses --      4.6710                 8.8891                 9.1008
 Frc consts  --      6.2573                14.7779                15.3913
 IR Inten    --    785.7368               677.2279               355.1584

                     28                     29                     30
                      A                      A                      A
 Frequencies --   3225.2731              3241.7818              3242.2099
 Red. masses --      1.0963                 1.0949                 1.0951
 Frc consts  --      6.7192                 6.7796                 6.7823
 IR Inten    --      0.4755               111.2986               113.3953

 - Thermochemistry -
 -------------------
 Temperature   298.150 Kelvin.  Pressure   1.00000 Atm.
 Atom     1 has atomic number  6 and mass  12.00000

 Molecular mass:   132.01868 amu.
 Principal axes and moments of inertia in atomic units:
                           1         2         3
     Eigenvalues --  1020.750191020.761362041.51155
           X            1.00000  -0.00003   0.00000
           Y            0.00003   1.00000   0.00000
           Z           -0.00000  -0.00000   1.00000
 This molecule is an asymmetric top.
 Rotational symmetry number  1.
 Warning -- assumption of classical behavior for rotation
           may cause significant error
 Rotational temperatures (Kelvin)      0.08485     0.08485     0.04243
 Rotational constants (GHZ):           1.76805     1.76803     0.88402
 Zero-point vibrational energy     198722.9 (Joules/Mol)
                                   47.49590 (Kcal/Mol)
 Warning -- explicit consideration of  11 degrees of freedom as
           vibrations may cause significant error
 Vibrational temperatures:    331.81   358.49   373.42   469.74   469.77
          (Kelvin)            579.08   592.91   723.64   727.01   809.39
                              844.89   923.94  1254.44  1255.71  1424.14
                             1459.30  1463.70  1498.34  1663.06  1664.09
                             1764.36  1991.27  2002.46  2163.36  2169.48
                             2416.83  2437.63  4640.45  4664.20  4664.82

 Zero-point correction=                           0.075690 (Hartree/Particle)
 Thermal correction to Energy=                    0.082651
 Thermal correction to Enthalpy=                  0.083595
 Thermal correction to Gibbs Free Energy=         0.043536
 Sum of electronic and zero-point Energies=           -529.455785
 Sum of electronic and thermal Energies=              -529.448824
 Sum of electronic and thermal Enthalpies=            -529.447880
 Sum of electronic and thermal Free Energies=         -529.487938

                     E (Thermal)             CV                S
                      KCal/Mol        Cal/Mol-Kelvin    Cal/Mol-Kelvin
 Total                   51.864             26.641             84.311
 Electronic               0.000              0.000              1.377
 Translational            0.889              2.981             40.546
 Rotational               0.889              2.981             29.144
 Vibrational             50.087             20.680             13.244
 Vibration     1          0.652              1.794              1.874
 Vibration     2          0.662              1.764              1.736
 Vibration     3          0.668              1.747              1.665
 Vibration     4          0.710              1.623              1.277
 Vibration     5          0.710              1.622              1.277
 Vibration     6          0.768              1.465              0.954
 Vibration     7          0.776              1.444              0.919
 Vibration     8          0.858              1.243              0.651
 Vibration     9          0.861              1.238              0.645
 Vibration    10          0.918              1.112              0.519
 Vibration    11          0.944              1.059              0.472

 Optimization completed.
    -- Stationary point found.
 Normal termination of Gaussian 16 at Thu Jan 30 13:16:08 2025.
