 Gaussian 16, Revision A.03,
 Gaussian 16:  ES64L-G16RevA.03 25-Dec-2016

 --------------------------------------------------------
 #p opt freq nosymm PBE1PBE/6-311++G(d,p) density=current
 --------------------------------------------------------

 ----------
 benzene SP
 ----------
 Symbolic Z-matrix:
 Charge =  1 Multiplicity = 2

 SCF Done:  E(UPBE1PBE) =  -231.678260503     A.U. after   13 cycles
 SCF Done:  E(UPBE1PBE) =  -231.683538608     A.U. after   10 cycles
 SCF Done:  E(UPBE1PBE) =  -231.683731568     A.U. after    8 cycles
 SCF Done:  E(UPBE1PBE) =  -231.683744160     A.U. after   10 cycles
 Optimization completed.
    -- Stationary point found.
 Normal termination of Gaussian 16 at Thu Jan 30 14:34:50 2025.

 ----------------------------------------------------------------------
 #P Geom=AllCheck Guess=TCheck SCRF=Check GenChk UPBE1PBE/6-311++G(d,p)
  Freq
 ----------------------------------------------------------------------

 Structure from the checkpoint file:  "benzene-CAT.chk"
 ----------
 benzene SP
 ----------
 Charge =  1 Multiplicity = 2

                          Input orientation:
 ---------------------------------------------------------------------
 Center     Atomic      Atomic             Coordinates (Angstroms)
 Number     Number       Type             X           Y           Z
 ---------------------------------------------------------------------
      1          6           0       -0.723229    1.188647    0.000000
      2          6           0        0.723247    1.188657   -0.000000
      3          6           0        1.433413    0.000014    0.000000
      4          6           0        0.723229   -1.188647    0.000000
      5          6           0       -0.723247   -1.188657   -0.000000
      6          6           0       -1.433413   -0.000014   -0.000000
      7          1           0       -1.242511    2.142169   -0.000000
      8          1           0        1.242519    2.142183    0.000000
      9          1           0        2.516927    0.000005   -0.000000
     10          1           0        1.242511   -2.142169    0.000000
     11          1           0       -1.242519   -2.142183   -0.000000
     12          1           0       -2.516927   -0.000005    0.000000
 ---------------------------------------------------------------------

 SCF Done:  E(UPBE1PBE) =  -231.683744160     A.U. after    1 cycles

 Alpha  occ. eigenvalues --  -10.48546 -10.48545 -10.48502 -10.48501 -10.44626
 Alpha  occ. eigenvalues --  -10.44625  -1.12211  -1.00917  -1.00711  -0.85945
 Alpha  occ. eigenvalues --   -0.84917  -0.76350  -0.69817  -0.69771  -0.66175
 Alpha  occ. eigenvalues --   -0.65805  -0.62491  -0.58621  -0.57812  -0.51655
 Alpha  occ. eigenvalues --   -0.50030
 Alpha virt. eigenvalues --   -0.26394  -0.22403  -0.14031  -0.11121  -0.10751
 Alpha virt. eigenvalues --   -0.09551  -0.08841  -0.08426  -0.08305  -0.08075
 Alpha virt. eigenvalues --   -0.04587  -0.04566  -0.04110  -0.03284  -0.01195

  Beta  occ. eigenvalues --  -10.48060 -10.48060 -10.48021 -10.48019 -10.44822
  Beta  occ. eigenvalues --  -10.44820  -1.11032  -1.00470  -0.98715  -0.84907
  Beta  occ. eigenvalues --   -0.84289  -0.76079  -0.69327  -0.69294  -0.66176
  Beta  occ. eigenvalues --   -0.65253  -0.58797  -0.58405  -0.57484  -0.49363
  Beta virt. eigenvalues --   -0.40287  -0.21745  -0.21005  -0.13881  -0.10963
  Beta virt. eigenvalues --   -0.10745  -0.09082  -0.08594  -0.08376  -0.07626
  Beta virt. eigenvalues --   -0.06011  -0.04443  -0.04103  -0.03863  -0.03233

 Mulliken charges and spin densities:
               1          2
     1  C   -0.068206   0.358730
     2  C   -0.068283   0.358482
     3  C   -0.254816  -0.179778
     4  C   -0.068206   0.358730
     5  C   -0.068283   0.358482
     6  C   -0.254816  -0.179778
     7  H    0.303894  -0.021206
     8  H    0.303886  -0.021193
     9  H    0.283525   0.004965
    10  H    0.303894  -0.021206
    11  H    0.303886  -0.021193
    12  H    0.283525   0.004965
 Sum of Mulliken charges =   1.00000   1.00000

 Dipole moment (field-independent basis, Debye):
    X=             -0.0000    Y=              0.0000    Z=              0.0000  Tot=              0.0000
 Quadrupole moment (field-independent basis, Debye-Ang):
   XX=            -20.9251   YY=            -18.4621   ZZ=            -35.3907
   XY=             -0.0005   XZ=             -0.0000   YZ=              0.0000

  Exact polarizability:  67.227  -0.002  75.273   0.000   0.000  31.611
 Approx polarizability:  96.649  -0.006 129.985   0.000  -0.000  45.545

 ******    1 imaginary frequencies (negative Signs) ******

                      1                      2                      3
                      A                      A                      A
 Frequencies --   -423.2460               298.0436               322.3752
 Red. masses --      9.6960                 2.3937                 2.7823
 Frc consts  --      1.0234                 0.1253                 0.1704
 IR Inten    --      0.0000                 0.0000                 4.2111

                      4                      5                      6
                      A                      A                      A
 Frequencies --    353.6679               598.9015               683.7642
 Red. masses --      1.8389                 6.0870                 1.0981
 Frc consts  --      0.1355                 1.2864                 0.3025
 IR Inten    --      0.0000                 0.0000                98.7721

                      7                      8                      9
                      A                      A                      A
 Frequencies --    841.2355               879.7003               887.4404
 Red. masses --      1.6464                 1.2540                 2.8411
 Frc consts  --      0.6865                 0.5718                 1.3183
 IR Inten    --      0.0000                 0.0000                 0.0000

                     10                     11                     12
                      A                      A                      A
 Frequencies --    964.6115               989.9510              1000.5335
 Red. masses --      2.2731                 5.7346                 1.3665
 Frc consts  --      1.2462                 3.3112                 0.8060
 IR Inten    --     21.2522                 0.0000                 0.0000

                     13                     14                     15
                      A                      A                      A
 Frequencies --   1003.0792              1011.7793              1014.4708
 Red. masses --      6.3062                 1.5202                 1.3750
 Frc consts  --      3.7384                 0.9169                 0.8337
 IR Inten    --      0.2653                 0.0000                 4.0979

                     16                     17                     18
                      A                      A                      A
 Frequencies --   1090.7599              1199.0140              1208.1504
 Red. masses --      1.6160                 1.0312                 1.1805
 Frc consts  --      1.1328                 0.8735                 1.0152
 IR Inten    --      7.3961                 2.5594                 0.0000

                     19                     20                     21
                      A                      A                      A
 Frequencies --   1348.0290              1381.8043              1421.8749
 Red. masses --      1.2806                 1.2459                 2.3145
 Frc consts  --      1.3711                 1.4016                 2.7569
 IR Inten    --      0.0000                 0.0000                 3.6976

                     22                     23                     24
                      A                      A                      A
 Frequencies --   1479.3222              1534.6112              1601.9052
 Red. masses --      3.1544                 2.1398                 4.6376
 Frc consts  --      4.0672                 2.9691                 7.0116
 IR Inten    --    223.8376                19.9151                 0.0000

                     25                     26                     27
                      A                      A                      A
 Frequencies --   3208.4360              3214.4033              3218.9599
 Red. masses --      1.0902                 1.0927                 1.0910
 Frc consts  --      6.6121                 6.6521                 6.6607
 IR Inten    --      1.7610                 0.0000                 0.0000

                     28                     29                     30
                      A                      A                      A
 Frequencies --   3222.6618              3236.6214              3238.5955
 Red. masses --      1.0938                 1.0977                 1.1004
 Frc consts  --      6.6932                 6.7754                 6.8001
 IR Inten    --     11.6972                22.4241                 0.0000

 - Thermochemistry -
 -------------------
 Temperature   298.150 Kelvin.  Pressure   1.00000 Atm.
 Atom     1 has atomic number  6 and mass  12.00000

 Molecular mass:    78.04695 amu.
 Principal axes and moments of inertia in atomic units:
                           1         2         3
     Eigenvalues --   308.24792 333.58142 641.82934
           X            1.00000  -0.00018  -0.00000
           Y            0.00018   1.00000   0.00000
           Z            0.00000  -0.00000   1.00000
 This molecule is an asymmetric top.
 Rotational symmetry number  1.
 Rotational temperatures (Kelvin)      0.28099     0.25965     0.13495
 Rotational constants (GHZ):           5.85484     5.41020     2.81187
    1 imaginary frequencies ignored.
 Zero-point vibrational energy     253935.5 (Joules/Mol)
                                   60.69205 (Kcal/Mol)
 Warning -- explicit consideration of   4 degrees of freedom as
           vibrations may cause significant error
 Vibrational temperatures:    428.82   463.83   508.85   861.69   983.78
          (Kelvin)           1210.35  1265.69  1276.83  1387.86  1424.32
                             1439.54  1443.21  1455.72  1459.60  1569.36
                             1725.11  1738.26  1939.51  1988.11  2045.76
                             2128.41  2207.96  2304.78  4616.22  4624.81
                             4631.37  4636.69  4656.78  4659.62

 Zero-point correction=                           0.096719 (Hartree/Particle)
 Thermal correction to Energy=                    0.101506
 Thermal correction to Enthalpy=                  0.102450
 Thermal correction to Gibbs Free Energy=         0.068250
 Sum of electronic and zero-point Energies=           -231.587025
 Sum of electronic and thermal Energies=              -231.582238
 Sum of electronic and thermal Enthalpies=            -231.581294
 Sum of electronic and thermal Free Energies=         -231.615494

                     E (Thermal)             CV                S
                      KCal/Mol        Cal/Mol-Kelvin    Cal/Mol-Kelvin
 Total                   63.696             17.875             71.980
 Electronic               0.000              0.000              1.377
 Translational            0.889              2.981             38.979
 Rotational               0.889              2.981             25.693
 Vibrational             61.918             11.914              5.931
 Vibration     1          0.691              1.677              1.428
 Vibration     2          0.707              1.631              1.298
 Vibration     3          0.730              1.568              1.150
 Vibration     4          0.957              1.034              0.452

 Optimization completed.
    -- Stationary point found.
 Normal termination of Gaussian 16 at Thu Jan 30 14:39:28 2025.
