 Gaussian 16, Revision A.03,
 Gaussian 16:  ES64L-G16RevA.03 25-Dec-2016

 --------------------------------------------------------
 #p opt freq nosymm PBE1PBE/6-311++G(d,p) density=current
 --------------------------------------------------------

 ----------
 benzene SP
 ----------
 Symbolic Z-matrix:
 Charge = -1 Multiplicity = 2

 SCF Done:  E(UPBE1PBE) =  -231.995744888     A.U. after   19 cycles
 SCF Done:  E(UPBE1PBE) =  -231.995780071     A.U. after   14 cycles
 Optimization completed.
    -- Stationary point found.
 Normal termination of Gaussian 16 at Thu Jan 30 14:34:56 2025.

 ----------------------------------------------------------------------
 #P Geom=AllCheck Guess=TCheck SCRF=Check GenChk UPBE1PBE/6-311++G(d,p)
  Freq
 ----------------------------------------------------------------------

 Structure from the checkpoint file:  "benzene-ANI.chk"
 ----------
 benzene SP
 ----------
 Charge = -1 Multiplicity = 2

                          Input orientation:
 ---------------------------------------------------------------------
 Center     Atomic      Atomic             Coordinates (Angstroms)
 Number     Number       Type             X           Y           Z
 ---------------------------------------------------------------------
      1          6           0       -0.695269    1.204245    0.000000
      2          6           0        0.695268    1.204246    0.000000
      3          6           0        1.390539    0.000001   -0.000000
      4          6           0        0.695269   -1.204245    0.000000
      5          6           0       -0.695268   -1.204246   -0.000000
      6          6           0       -1.390539   -0.000001    0.000000
      7          1           0       -1.239421    2.146787    0.000000
      8          1           0        1.239418    2.146789   -0.000000
      9          1           0        2.478876    0.000002    0.000000
     10          1           0        1.239421   -2.146788   -0.000000
     11          1           0       -1.239418   -2.146789    0.000000
     12          1           0       -2.478876   -0.000002   -0.000000
 ---------------------------------------------------------------------

 SCF Done:  E(UPBE1PBE) =  -231.995780071     A.U. after    2 cycles

 Alpha  occ. eigenvalues --  -10.10786 -10.10758 -10.10758 -10.10696 -10.10696
 Alpha  occ. eigenvalues --  -10.10666  -0.76515  -0.65223  -0.65222  -0.50341
 Alpha  occ. eigenvalues --   -0.50341  -0.42276  -0.35464  -0.34473  -0.31626
 Alpha  occ. eigenvalues --   -0.31626  -0.26651  -0.23639  -0.23638  -0.14869
 Alpha  occ. eigenvalues --   -0.14869   0.05264
 Alpha virt. eigenvalues --    0.08001   0.08001   0.10189   0.10189   0.10882
 Alpha virt. eigenvalues --    0.10883   0.12620   0.16770   0.18779   0.19327
 Alpha virt. eigenvalues --    0.19327   0.19883   0.21002   0.21551   0.21551

  Beta  occ. eigenvalues --  -10.10771 -10.10744 -10.10744 -10.10681 -10.10681
  Beta  occ. eigenvalues --  -10.10651  -0.76474  -0.65174  -0.65174  -0.50279
  Beta  occ. eigenvalues --   -0.50279  -0.42158  -0.35373  -0.34428  -0.31550
  Beta  occ. eigenvalues --   -0.31550  -0.26617  -0.23559  -0.23558  -0.14840
  Beta  occ. eigenvalues --   -0.14840
  Beta virt. eigenvalues --    0.09305   0.10588   0.10588   0.10938   0.10938
  Beta virt. eigenvalues --    0.12671   0.12671   0.15384   0.17094   0.19095
  Beta virt. eigenvalues --    0.19489   0.19490   0.20257   0.22351   0.22494

 Mulliken charges and spin densities:
               1          2
     1  C    0.334092  -0.556695
     2  C    0.334093  -0.556696
     3  C    0.333331  -0.555992
     4  C    0.334093  -0.556696
     5  C    0.334092  -0.556694
     6  C    0.333332  -0.555993
     7  H   -0.500456   0.723080
     8  H   -0.500456   0.723079
     9  H   -0.500604   0.723224
    10  H   -0.500456   0.723080
    11  H   -0.500456   0.723080
    12  H   -0.500604   0.723223
 Sum of Mulliken charges =  -1.00000   1.00000

 Dipole moment (field-independent basis, Debye):
    X=              0.0000    Y=              0.0000    Z=              0.0000  Tot=              0.0000
 Quadrupole moment (field-independent basis, Debye-Ang):
   XX=            -79.2603   YY=            -79.2619   ZZ=            -56.6956
   XY=              0.0000   XZ=              0.0000   YZ=              0.0000

  Exact polarizability:5727.638  -0.0005758.344  -0.000   0.000 153.779
 Approx polarizability:2620.110  -0.0002620.220  -0.000  -0.000 159.133

                      1                      2                      3
                      A                      A                      A
 Frequencies --    391.5554               391.5745               606.8628
 Red. masses --      2.8241                 2.8247                 6.1260
 Frc consts  --      0.2551                 0.2552                 1.3293
 IR Inten    --      0.0000                 0.0000                 0.0000

                      4                      5                      6
                      A                      A                      A
 Frequencies --    607.0022               702.7782               717.4351
 Red. masses --      6.1261                 1.0848                 3.4930
 Frc consts  --      1.3299                 0.3157                 1.0593
 IR Inten    --      0.0000               814.5127                 0.0000

                      7                      8                      9
                      A                      A                      A
 Frequencies --    867.7203               868.8269               954.3065
 Red. masses --      1.2488                 1.2488                 6.5634
 Frc consts  --      0.5540                 0.5554                 3.5217
 IR Inten    --      0.0000                 0.0000                 0.0112

                     10                     11                     12
                      A                      A                      A
 Frequencies --    987.1516               987.2823              1016.9468
 Red. masses --      1.3860                 1.3859                 1.2670
 Frc consts  --      0.7958                 0.7959                 0.7720
 IR Inten    --      0.0068                 0.0000                 0.0000

                     13                     14                     15
                      A                      A                      A
 Frequencies --   1026.9987              1062.9320              1062.9399
 Red. masses --      5.9965                 1.6200                 1.6202
 Frc consts  --      3.7264                 1.0784                 1.0785
 IR Inten    --      0.0000              1171.5851              1174.8334

                     16                     17                     18
                      A                      A                      A
 Frequencies --   1160.7440              1182.3133              1182.3884
 Red. masses --      1.0537                 1.1056                 1.1056
 Frc consts  --      0.8365                 0.9105                 0.9107
 IR Inten    --      0.4937                 0.0000                 0.0000

                     19                     20                     21
                      A                      A                      A
 Frequencies --   1369.5392              1377.6532              1512.4276
 Red. masses --      1.2488                 7.9015                 2.1411
 Frc consts  --      1.3801                 8.8357                 2.8856
 IR Inten    --      0.0000                 0.0787               431.1347

                     22                     23                     24
                      A                      A                      A
 Frequencies --   1512.4316              1655.6479              1655.6769
 Red. masses --      2.1409                 6.1076                 6.1073
 Frc consts  --      2.8853                 9.8641                 9.8639
 IR Inten    --    423.5192                 0.0000                 0.0000

                     25                     26                     27
                      A                      A                      A
 Frequencies --   3135.6055              3149.9084              3153.0405
 Red. masses --      1.0832                 1.1003                 1.0874
 Frc consts  --      6.2747                 6.4324                 6.3692
 IR Inten    --      0.1720                 0.0000                 0.0000

                     28                     29                     30
                      A                      A                      A
 Frequencies --   3153.1822              3156.4522              3156.5336
 Red. masses --      1.0874                 1.0952                 1.0952
 Frc consts  --      6.3698                 6.4291                 6.4294
 IR Inten    --      0.0000                 0.9521                 4.0770

 - Thermochemistry -
 -------------------
 Temperature   298.150 Kelvin.  Pressure   1.00000 Atm.
 Atom     1 has atomic number  6 and mass  12.00000

 Molecular mass:    78.04695 amu.
 Principal axes and moments of inertia in atomic units:
                           1         2         3
     Eigenvalues --   314.92520 314.92876 629.85396
           X            0.00051   1.00000   0.00000
           Y            1.00000  -0.00051  -0.00000
           Z            0.00000  -0.00000   1.00000
 This molecule is an asymmetric top.
 Rotational symmetry number  1.
 Rotational temperatures (Kelvin)      0.27503     0.27503     0.13751
 Rotational constants (GHZ):           5.73070     5.73063     2.86533
 Zero-point vibrational energy     261778.0 (Joules/Mol)
                                   62.56643 (Kcal/Mol)
 Warning -- explicit consideration of   4 degrees of freedom as
           vibrations may cause significant error
 Vibrational temperatures:    563.36   563.39   873.14   873.34  1011.14
          (Kelvin)           1032.23  1248.46  1250.05  1373.03  1420.29
                             1420.48  1463.16  1477.62  1529.32  1529.33
                             1670.05  1701.09  1701.19  1970.46  1982.14
                             2176.05  2176.05  2382.11  2382.15  4511.44
                             4532.02  4536.52  4536.73  4541.43  4541.55

 Zero-point correction=                           0.099706 (Hartree/Particle)
 Thermal correction to Energy=                    0.104159
 Thermal correction to Enthalpy=                  0.105103
 Thermal correction to Gibbs Free Energy=         0.071557
 Sum of electronic and zero-point Energies=           -231.896074
 Sum of electronic and thermal Energies=              -231.891622
 Sum of electronic and thermal Enthalpies=            -231.890677
 Sum of electronic and thermal Free Energies=         -231.924223

                     E (Thermal)             CV                S
                      KCal/Mol        Cal/Mol-Kelvin    Cal/Mol-Kelvin
 Total                   65.360             17.356             70.602
 Electronic               0.000              0.000              1.377
 Translational            0.889              2.981             38.979
 Rotational               0.889              2.981             25.638
 Vibrational             63.583             11.394              4.608
 Vibration     1          0.759              1.488              0.994
 Vibration     2          0.759              1.488              0.994
 Vibration     3          0.966              1.017              0.438
 Vibration     4          0.966              1.017              0.438

 Optimization completed.
    -- Stationary point found.
 Normal termination of Gaussian 16 at Thu Jan 30 14:39:39 2025.
