 Gaussian 16, Revision A.03,
 Gaussian 16:  ES64L-G16RevA.03 25-Dec-2016

 --------------------------------------------------------
 #p opt freq PBE1PBE/6-311++G(d,p) density=current nosymm
 --------------------------------------------------------

 ------
 PFB SP
 ------
 Symbolic Z-matrix:
 Charge =  1 Multiplicity = 2

 SCF Done:  E(UPBE1PBE) =  -727.520785547     A.U. after   21 cycles
 SCF Done:  E(UPBE1PBE) =  -727.532187990     A.U. after   17 cycles
 SCF Done:  E(UPBE1PBE) =  -727.533028977     A.U. after   15 cycles
 SCF Done:  E(UPBE1PBE) =  -727.533050857     A.U. after   13 cycles
 SCF Done:  E(UPBE1PBE) =  -727.533052362     A.U. after   12 cycles
 Optimization completed.
    -- Stationary point found.
 Normal termination of Gaussian 16 at Thu Jan 30 14:33:01 2025.

 ----------------------------------------------------------------------
 #P Geom=AllCheck Guess=TCheck SCRF=Check GenChk UPBE1PBE/6-311++G(d,p)
  Freq
 ----------------------------------------------------------------------

 Structure from the checkpoint file:  "PFB-CAT.chk"
 ------
 PFB SP
 ------
 Charge =  1 Multiplicity = 2

                          Input orientation:
 ---------------------------------------------------------------------
 Center     Atomic      Atomic             Coordinates (Angstroms)
 Number     Number       Type             X           Y           Z
 ---------------------------------------------------------------------
      1          6           0        1.208938    0.656507   -0.000000
      2          6           0        1.249757   -0.721565   -0.000000
      3          6           0        0.035950   -1.375266   -0.000000
      4          6           0       -1.224465   -0.665328   -0.000000
      5          6           0       -1.251048    0.722318   -0.000000
      6          6           0       -0.036067    1.393118   -0.000000
      7          1           0        2.188877   -1.263719    0.000000
      8          9           0       -0.037541   -2.662298    0.000000
      9          9           0       -2.313342   -1.350203    0.000000
     10          9           0       -2.377630    1.372675    0.000000
     11          9           0        0.012683    2.678562    0.000000
     12          9           0        2.286821    1.363617    0.000000
 ---------------------------------------------------------------------

 SCF Done:  E(UPBE1PBE) =  -727.533052362     A.U. after    1 cycles

 Alpha  occ. eigenvalues --  -25.04622 -25.04620 -25.04338 -25.04337 -25.01701
 Alpha  occ. eigenvalues --  -10.60384 -10.60383 -10.60123 -10.60121 -10.57197
 Alpha  occ. eigenvalues --  -10.48511  -1.55287  -1.55103  -1.53656  -1.53488
 Alpha  occ. eigenvalues --   -1.50861  -1.16882  -1.05454  -1.04143  -0.93205
 Alpha  occ. eigenvalues --   -0.92668  -0.85580  -0.85365  -0.84117  -0.80632
 Alpha  occ. eigenvalues --   -0.79331  -0.79111  -0.77890  -0.76766  -0.74574
 Alpha  occ. eigenvalues --   -0.73475  -0.72364  -0.70832  -0.69755  -0.68388
 Alpha  occ. eigenvalues --   -0.66093  -0.63999  -0.62157  -0.60520  -0.51286
 Alpha  occ. eigenvalues --   -0.50957
 Alpha virt. eigenvalues --   -0.27331  -0.24811  -0.20734  -0.13442  -0.13116
 Alpha virt. eigenvalues --   -0.10361  -0.10216  -0.09640  -0.09165  -0.06650
 Alpha virt. eigenvalues --   -0.05423  -0.04979  -0.04502  -0.03885  -0.03648

  Beta  occ. eigenvalues --  -25.04363 -25.04361 -25.04088 -25.04087 -25.01753
  Beta  occ. eigenvalues --  -10.59971 -10.59970 -10.59677 -10.59675 -10.57395
  Beta  occ. eigenvalues --  -10.48681  -1.54751  -1.54542  -1.53164  -1.52955
  Beta  occ. eigenvalues --   -1.50911  -1.15951  -1.05283  -1.02399  -0.92743
  Beta  occ. eigenvalues --   -0.92040  -0.85289  -0.85111  -0.83845  -0.80164
  Beta  occ. eigenvalues --   -0.79246  -0.77673  -0.77170  -0.74525  -0.73240
  Beta  occ. eigenvalues --   -0.72320  -0.71694  -0.70431  -0.69552  -0.68247
  Beta  occ. eigenvalues --   -0.65814  -0.63645  -0.61924  -0.57913  -0.50702
  Beta virt. eigenvalues --   -0.40971  -0.23459  -0.23116  -0.20289  -0.13069
  Beta virt. eigenvalues --   -0.12981  -0.10193  -0.09680  -0.09478  -0.07299
  Beta virt. eigenvalues --   -0.06551  -0.05342  -0.04692  -0.04428  -0.03639

 Mulliken charges and spin densities:
               1          2
     1  C   -0.252780   0.311513
     2  C    0.731229  -0.188057
     3  C   -0.252900   0.311376
     4  C    0.291601   0.216288
     5  C    0.128357  -0.076036
     6  C    0.291557   0.216096
     7  H    0.349723   0.003086
     8  F   -0.029743   0.049898
     9  F   -0.056975   0.057783
    10  F   -0.113342  -0.009617
    11  F   -0.057015   0.057748
    12  F   -0.029713   0.049922
 Sum of Mulliken charges =   1.00000   1.00000

 Dipole moment (field-independent basis, Debye):
    X=              1.0916    Y=             -0.6304    Z=             -0.0000  Tot=              1.2606
 Quadrupole moment (field-independent basis, Debye-Ang):
   XX=            -47.1366   YY=            -48.4263   ZZ=            -53.4083
   XY=             -1.1156   XZ=              0.0000   YZ=             -0.0000

  Exact polarizability:  80.135   8.403  89.829  -0.000   0.000  32.351
 Approx polarizability: 124.116  26.115 154.250   0.000   0.000  46.276

                      1                      2                      3
                      A                      A                      A
 Frequencies --    111.7300               134.7243               190.0709
 Red. masses --     18.4424                16.4076                11.5660
 Frc consts  --      0.1356                 0.1755                 0.2462
 IR Inten    --      0.0000                 0.2925                 6.9980

                      4                      5                      6
                      A                      A                      A
 Frequencies --    255.1830               280.4428               289.5216
 Red. masses --     17.4766                18.1325                 7.5543
 Frc consts  --      0.6705                 0.8402                 0.3731
 IR Inten    --      0.0003                 0.0238                 2.3494

                      7                      8                      9
                      A                      A                      A
 Frequencies --    310.0994               351.3454               359.0172
 Red. masses --     17.9180                16.5602                15.6916
 Frc consts  --      1.0152                 1.2044                 1.1916
 IR Inten    --      2.8503                 6.0721                 3.7359

                     10                     11                     12
                      A                      A                      A
 Frequencies --    449.5844               469.9715               545.6104
 Red. masses --     12.6527                13.8702                 6.5100
 Frc consts  --      1.5068                 1.8050                 1.1418
 IR Inten    --      0.0000                 1.3591                 0.1029

                     13                     14                     15
                      A                      A                      A
 Frequencies --    579.2101               588.6895               685.7864
 Red. masses --      7.1337                16.5508                12.2330
 Frc consts  --      1.4101                 3.3794                 3.3897
 IR Inten    --      0.0061                 0.3836                 0.0000

                     16                     17                     18
                      A                      A                      A
 Frequencies --    704.6518               719.9247               852.2819
 Red. masses --      4.7631                 9.7826                 1.3224
 Frc consts  --      1.3934                 2.9873                 0.5660
 IR Inten    --      0.3872                20.7308                46.2570

                     19                     20                     21
                      A                      A                      A
 Frequencies --    989.7224              1141.9006              1188.9456
 Red. masses --      4.5332                12.3063                 2.4635
 Frc consts  --      2.6163                 9.4544                 2.0518
 IR Inten    --     29.6456               151.1493                 6.7935

                     22                     23                     24
                      A                      A                      A
 Frequencies --   1244.4200              1388.9419              1398.6543
 Red. masses --      3.9656                11.4160                12.3671
 Frc consts  --      3.6182                12.9758                14.2541
 IR Inten    --     74.0715                 3.5009                97.5340

                     25                     26                     27
                      A                      A                      A
 Frequencies --   1465.9944              1541.3913              1548.0068
 Red. masses --      9.9998                12.2734                 5.8738
 Frc consts  --     12.6621                17.1807                 8.2931
 IR Inten    --    374.7046                26.6516               897.6461

                     28                     29                     30
                      A                      A                      A
 Frequencies --   1593.2128              1648.7831              3233.5277
 Red. masses --     11.1449                12.2448                 1.0965
 Frc consts  --     16.6676                19.6123                 6.7548
 IR Inten    --     20.3771               223.0432                57.8611

 - Thermochemistry -
 -------------------
 Temperature   298.150 Kelvin.  Pressure   1.00000 Atm.
 Atom     1 has atomic number  6 and mass  12.00000

 Molecular mass:   167.99984 amu.
 Principal axes and moments of inertia in atomic units:
                           1         2         3
     Eigenvalues --  1215.712371706.184472921.89684
           X            0.49999   0.86603   0.00000
           Y            0.86603  -0.49999  -0.00000
           Z           -0.00000  -0.00000   1.00000
 This molecule is an asymmetric top.
 Rotational symmetry number  1.
 Warning -- assumption of classical behavior for rotation
           may cause significant error
 Rotational temperatures (Kelvin)      0.07125     0.05076     0.02964
 Rotational constants (GHZ):           1.48451     1.05776     0.61766
 Zero-point vibrational energy     157077.7 (Joules/Mol)
                                   37.54248 (Kcal/Mol)
 Warning -- explicit consideration of  14 degrees of freedom as
           vibrations may cause significant error
 Vibrational temperatures:    160.75   193.84   273.47   367.15   403.49
          (Kelvin)            416.56   446.16   505.51   516.55   646.85
                              676.18   785.01   833.35   846.99   986.69
                             1013.84  1035.81  1226.24  1423.99  1642.94
                             1710.63  1790.44  1998.38  2012.35  2109.24
                             2217.72  2227.24  2292.28  2372.23  4652.33

 Zero-point correction=                           0.059828 (Hartree/Particle)
 Thermal correction to Energy=                    0.068663
 Thermal correction to Enthalpy=                  0.069607
 Thermal correction to Gibbs Free Energy=         0.024968
 Sum of electronic and zero-point Energies=           -727.473225
 Sum of electronic and thermal Energies=              -727.464389
 Sum of electronic and thermal Enthalpies=            -727.463445
 Sum of electronic and thermal Free Energies=         -727.508085

                     E (Thermal)             CV                S
                      KCal/Mol        Cal/Mol-Kelvin    Cal/Mol-Kelvin
 Total                   43.087             32.162             93.952
 Electronic               0.000              0.000              1.377
 Translational            0.889              2.981             41.264
 Rotational               0.889              2.981             30.184
 Vibrational             41.309             26.201             21.126
 Vibration     1          0.607              1.940              3.239
 Vibration     2          0.613              1.919              2.877
 Vibration     3          0.633              1.854              2.227
 Vibration     4          0.666              1.754              1.694
 Vibration     5          0.680              1.710              1.531
 Vibration     6          0.686              1.693              1.477
 Vibration     7          0.699              1.654              1.362
 Vibration     8          0.728              1.572              1.160
 Vibration     9          0.734              1.557              1.126
 Vibration    10          0.808              1.362              0.797
 Vibration    11          0.827              1.317              0.738
 Vibration    12          0.901              1.149              0.553
 Vibration    13          0.936              1.076              0.487
 Vibration    14          0.946              1.056              0.470

 Optimization completed.
    -- Stationary point found.
 Normal termination of Gaussian 16 at Thu Jan 30 14:42:12 2025.
