 Gaussian 16, Revision A.03,
 Gaussian 16:  ES64L-G16RevA.03 25-Dec-2016

 --------------------------------------------------------
 #p opt freq PBE1PBE/6-311++G(d,p) density=current nosymm
 --------------------------------------------------------

 ------
 PFB SP
 ------
 Symbolic Z-matrix:
 Charge = -1 Multiplicity = 2

 SCF Done:  E(UPBE1PBE) =  -727.856511421     A.U. after   23 cycles
 SCF Done:  E(UPBE1PBE) =  -727.867029897     A.U. after   30 cycles
 SCF Done:  E(UPBE1PBE) =  -727.867611127     A.U. after   24 cycles
 SCF Done:  E(UPBE1PBE) =  -727.867632385     A.U. after   22 cycles
 SCF Done:  E(UPBE1PBE) =  -727.867664521     A.U. after   24 cycles
 SCF Done:  E(UPBE1PBE) =  -727.873130447     A.U. after   25 cycles
 SCF Done:  E(UPBE1PBE) =  -727.872756575     A.U. after   20 cycles
 SCF Done:  E(UPBE1PBE) =  -727.886301914     A.U. after   20 cycles
 SCF Done:  E(UPBE1PBE) =  -727.890558310     A.U. after   19 cycles
 SCF Done:  E(UPBE1PBE) =  -727.891909312     A.U. after   17 cycles
 SCF Done:  E(UPBE1PBE) =  -727.892051134     A.U. after   15 cycles
 SCF Done:  E(UPBE1PBE) =  -727.892090311     A.U. after   13 cycles
 SCF Done:  E(UPBE1PBE) =  -727.892095963     A.U. after   13 cycles
 SCF Done:  E(UPBE1PBE) =  -727.892098080     A.U. after   14 cycles
 SCF Done:  E(UPBE1PBE) =  -727.892098766     A.U. after   13 cycles
 Optimization completed.
    -- Stationary point found.
 Normal termination of Gaussian 16 at Thu Jan 30 15:29:44 2025.

 ----------------------------------------------------------------------
 #P Geom=AllCheck Guess=TCheck SCRF=Check GenChk UPBE1PBE/6-311++G(d,p)
  Freq
 ----------------------------------------------------------------------

 Structure from the checkpoint file:  "PFB-ANI.chk"
 ------
 PFB SP
 ------
 Charge = -1 Multiplicity = 2

                          Input orientation:
 ---------------------------------------------------------------------
 Center     Atomic      Atomic             Coordinates (Angstroms)
 Number     Number       Type             X           Y           Z
 ---------------------------------------------------------------------
      1          6           0        1.168671    0.692121    0.000946
      2          6           0        1.214904   -0.701417    0.091616
      3          6           0       -0.015056   -1.358151    0.000938
      4          6           0       -1.204320   -0.684368   -0.081330
      5          6           0       -1.251902    0.722779   -0.102161
      6          6           0       -0.009482    1.385150   -0.081318
      7          1           0        2.133205   -1.231611    0.309662
      8          9           0       -0.012065   -2.720581   -0.081264
      9          9           0       -2.353372   -1.397273   -0.304564
     10          9           0       -2.311091    1.334303    0.633299
     11          9           0        0.033382    2.736711   -0.304553
     12          9           0        2.350059    1.370753   -0.081270
 ---------------------------------------------------------------------

 SCF Done:  E(UPBE1PBE) =  -727.892098766     A.U. after    1 cycles

 Alpha  occ. eigenvalues --  -24.63996 -24.63996 -24.62528 -24.62528 -24.59302
 Alpha  occ. eigenvalues --  -10.16381 -10.16381 -10.14884 -10.14883 -10.13450
 Alpha  occ. eigenvalues --  -10.07987  -1.11958  -1.11901  -1.09945  -1.09828
 Alpha  occ. eigenvalues --   -1.05672  -0.74856  -0.63078  -0.63021  -0.51956
 Alpha  occ. eigenvalues --   -0.50275  -0.44127  -0.42434  -0.42315  -0.38910
 Alpha  occ. eigenvalues --   -0.36980  -0.35672  -0.35310  -0.34659  -0.32897
 Alpha  occ. eigenvalues --   -0.32359  -0.31717  -0.29741  -0.28561  -0.27388
 Alpha  occ. eigenvalues --   -0.25746  -0.25333  -0.22231  -0.20120  -0.11085
 Alpha  occ. eigenvalues --   -0.10611   0.01195
 Alpha virt. eigenvalues --    0.11202   0.14827   0.15272   0.16457   0.16968
 Alpha virt. eigenvalues --    0.17772   0.18555   0.20031   0.21291   0.21548
 Alpha virt. eigenvalues --    0.21778   0.21906   0.23534   0.24054   0.25040

  Beta  occ. eigenvalues --  -24.63948 -24.63948 -24.62410 -24.62410 -24.58939
  Beta  occ. eigenvalues --  -10.16404 -10.16403 -10.14752 -10.14752 -10.12694
  Beta  occ. eigenvalues --  -10.07705  -1.11805  -1.11752  -1.09645  -1.09543
  Beta  occ. eigenvalues --   -1.04766  -0.74192  -0.62590  -0.62215  -0.51145
  Beta  occ. eigenvalues --   -0.50027  -0.43598  -0.42021  -0.42020  -0.38626
  Beta  occ. eigenvalues --   -0.36451  -0.35017  -0.34958  -0.34476  -0.32535
  Beta  occ. eigenvalues --   -0.31838  -0.31488  -0.29555  -0.27594  -0.27162
  Beta  occ. eigenvalues --   -0.25580  -0.24936  -0.21907  -0.19428  -0.09813
  Beta  occ. eigenvalues --   -0.08294
  Beta virt. eigenvalues --    0.10142   0.11579   0.15249   0.16216   0.16865
  Beta virt. eigenvalues --    0.17760   0.18223   0.19317   0.20554   0.21948
  Beta virt. eigenvalues --    0.22143   0.22392   0.22730   0.23957   0.24621

 Mulliken charges and spin densities:
               1          2
     1  C   -0.284595  -0.175870
     2  C    0.313609   0.392835
     3  C   -0.284581  -0.175864
     4  C   -0.047978   0.205191
     5  C    0.072986   0.628230
     6  C   -0.047931   0.205158
     7  H    0.211572  -0.002122
     8  F   -0.208638  -0.003823
     9  F   -0.189744  -0.023423
    10  F   -0.136321  -0.023066
    11  F   -0.189741  -0.023425
    12  F   -0.208638  -0.003823
 Sum of Mulliken charges =  -1.00000   1.00000

 Dipole moment (field-independent basis, Debye):
    X=              3.2677    Y=             -1.8866    Z=              0.2158  Tot=              3.7793
 Quadrupole moment (field-independent basis, Debye-Ang):
   XX=            -79.3704   YY=            -81.5956   ZZ=            -63.4405
   XY=             -1.9270   XZ=              1.3823   YZ=             -0.7980

  Exact polarizability: 115.313  -5.992 108.387   1.349  -0.776  57.665
 Approx polarizability: 170.446 -11.740 156.888   2.809  -1.621  75.426

                      1                      2                      3
                      A                      A                      A
 Frequencies --    105.8914               123.1205               165.9609
 Red. masses --     18.7406                16.9463                13.7454
 Frc consts  --      0.1238                 0.1514                 0.2231
 IR Inten    --      0.7170                 1.1325                 3.6522

                      4                      5                      6
                      A                      A                      A
 Frequencies --    228.1635               268.7694               294.2839
 Red. masses --     18.0346                16.1994                10.5482
 Frc consts  --      0.5532                 0.6895                 0.5382
 IR Inten    --      2.9613                 2.4833                 0.1477

                      7                      8                      9
                      A                      A                      A
 Frequencies --    297.9246               317.8585               414.8227
 Red. masses --     17.9926                14.9355                12.5206
 Frc consts  --      0.9409                 0.8891                 1.2694
 IR Inten    --      0.0420                 7.3842                10.0475

                     10                     11                     12
                      A                      A                      A
 Frequencies --    424.2334               430.1878               501.9050
 Red. masses --     14.5126                13.7401                 3.3503
 Frc consts  --      1.5389                 1.4982                 0.4973
 IR Inten    --      3.9252                21.2050                12.4619

                     13                     14                     15
                      A                      A                      A
 Frequencies --    546.3266               596.6407               655.5641
 Red. masses --      3.2019                11.8738                11.7781
 Frc consts  --      0.5631                 2.4904                 2.9823
 IR Inten    --     65.9886                 5.4480                20.9447

                     16                     17                     18
                      A                      A                      A
 Frequencies --    666.6481               674.0959               711.0981
 Red. masses --      2.4167                 5.5263                 8.2741
 Frc consts  --      0.6328                 1.4795                 2.4651
 IR Inten    --     79.5651                 1.9643                39.4011

                     19                     20                     21
                      A                      A                      A
 Frequencies --    856.1293               888.8831              1036.2398
 Red. masses --     11.4770                 7.8004                13.0653
 Frc consts  --      4.9563                 3.6312                 8.2659
 IR Inten    --    310.3933               316.8542                 1.0910

                     22                     23                     24
                      A                      A                      A
 Frequencies --   1140.3250              1145.2768              1258.1313
 Red. masses --     11.0967                 1.4524                12.3049
 Frc consts  --      8.5016                 1.1225                11.4757
 IR Inten    --    110.0532               146.9118               128.7361

                     25                     26                     27
                      A                      A                      A
 Frequencies --   1373.1572              1404.0543              1513.1751
 Red. masses --     10.4909                 7.2905                11.8973
 Frc consts  --     11.6547                 8.4678                16.0500
 IR Inten    --     54.1227               366.1908                66.3411

                     28                     29                     30
                      A                      A                      A
 Frequencies --   1571.8892              1676.5192              3221.4724
 Red. masses --      7.1699                11.5207                 1.0910
 Frc consts  --     10.4378                19.0785                 6.6709
 IR Inten    --    107.9031               134.2482                 5.7855

 - Thermochemistry -
 -------------------
 Temperature   298.150 Kelvin.  Pressure   1.00000 Atm.
 Atom     1 has atomic number  6 and mass  12.00000

 Molecular mass:   167.99984 amu.
 Principal axes and moments of inertia in atomic units:
                           1         2         3
     Eigenvalues --  1240.274861811.490492973.81009
           X            0.50000   0.86490   0.04420
           Y            0.86602  -0.49935  -0.02552
           Z            0.00000  -0.05103   0.99870
 This molecule is an asymmetric top.
 Rotational symmetry number  1.
 Warning -- assumption of classical behavior for rotation
           may cause significant error
 Rotational temperatures (Kelvin)      0.06983     0.04781     0.02913
 Rotational constants (GHZ):           1.45511     0.99627     0.60688
 Zero-point vibrational energy     146594.9 (Joules/Mol)
                                   35.03701 (Kcal/Mol)
 Warning -- explicit consideration of  14 degrees of freedom as
           vibrations may cause significant error
 Vibrational temperatures:    152.35   177.14   238.78   328.28   386.70
          (Kelvin)            423.41   428.65   457.33   596.84   610.38
                              618.94   722.13   786.04   858.43   943.21
                              959.16   969.87  1023.11  1231.78  1278.90
                             1490.92  1640.67  1647.80  1810.17  1975.67
                             2020.12  2177.12  2261.60  2412.14  4634.98

 Zero-point correction=                           0.055835 (Hartree/Particle)
 Thermal correction to Energy=                    0.065089
 Thermal correction to Enthalpy=                  0.066033
 Thermal correction to Gibbs Free Energy=         0.020546
 Sum of electronic and zero-point Energies=           -727.836264
 Sum of electronic and thermal Energies=              -727.827010
 Sum of electronic and thermal Enthalpies=            -727.826066
 Sum of electronic and thermal Free Energies=         -727.871553

                     E (Thermal)             CV                S
                      KCal/Mol        Cal/Mol-Kelvin    Cal/Mol-Kelvin
 Total                   40.844             33.909             95.736
 Electronic               0.000              0.000              1.377
 Translational            0.889              2.981             41.264
 Rotational               0.889              2.981             30.281
 Vibrational             39.066             27.948             22.813
 Vibration     1          0.605              1.945              3.343
 Vibration     2          0.610              1.930              3.051
 Vibration     3          0.624              1.884              2.481
 Vibration     4          0.651              1.798              1.893
 Vibration     5          0.673              1.731              1.604
 Vibration     6          0.689              1.684              1.449
 Vibration     7          0.691              1.678              1.429
 Vibration     8          0.704              1.639              1.321
 Vibration     9          0.778              1.438              0.910
 Vibration    10          0.786              1.418              0.878
 Vibration    11          0.791              1.404              0.858
 Vibration    12          0.857              1.246              0.653
 Vibration    13          0.902              1.148              0.552
 Vibration    14          0.954              1.039              0.455

 Optimization completed.
    -- Stationary point found.
 Normal termination of Gaussian 16 at Thu Jan 30 15:39:31 2025.
