 Gaussian 16, Revision A.03,
 Gaussian 16:  ES64L-G16RevA.03 25-Dec-2016

 -----------------------------------------------
 #p PBE1PBE/6-311++G(d,p) density=current nosymm
 -----------------------------------------------

 ------
 PFB SP
 ------
 Symbolic Z-matrix:
 Charge =  0 Multiplicity = 1

                          Input orientation:
 ---------------------------------------------------------------------
 Center     Atomic      Atomic             Coordinates (Angstroms)
 Number     Number       Type             X           Y           Z
 ---------------------------------------------------------------------
      1          6           0        1.191533    0.685362    0.000000
      2          6           0        1.207116   -0.696977    0.000000
      3          6           0        0.002291   -1.374757   -0.000000
      4          6           0       -1.206045   -0.694328    0.000000
      5          6           0       -1.201570    0.693813    0.000000
      6          6           0       -0.001780    1.391908   -0.000000
      7          1           0        2.144796   -1.238075    0.000000
      8          9           0       -0.014349   -2.704782    0.000000
      9          9           0       -2.357753   -1.350838    0.000000
     10          9           0       -2.347807    1.355023   -0.000000
     11          9           0       -0.008716    2.717605    0.000000
     12          9           0        2.335219    1.364462    0.000000
 ---------------------------------------------------------------------

 SCF Done:  E(RPBE1PBE) =  -727.882093994     A.U. after   13 cycles

 Alpha  occ. eigenvalues --  -24.82816 -24.82396 -24.82394 -24.82079 -24.82078
 Alpha  occ. eigenvalues --  -10.36376 -10.35907 -10.35906 -10.35677 -10.35673
 Alpha  occ. eigenvalues --  -10.27826  -1.32463  -1.31607  -1.31050  -1.30204
 Alpha  occ. eigenvalues --   -1.29951  -0.95112  -0.83334  -0.82596  -0.71668
 Alpha  occ. eigenvalues --   -0.70704  -0.64169  -0.63292  -0.62192  -0.58867
 Alpha  occ. eigenvalues --   -0.58280  -0.56575  -0.55778  -0.53731  -0.52688
 Alpha  occ. eigenvalues --   -0.51419  -0.50844  -0.50453  -0.48323  -0.48014
 Alpha  occ. eigenvalues --   -0.45199  -0.43408  -0.41953  -0.39367  -0.30097
 Alpha  occ. eigenvalues --   -0.28795
 Alpha virt. eigenvalues --   -0.04385  -0.02985  -0.02945   0.00787   0.02063
 Alpha virt. eigenvalues --    0.04898   0.05188   0.06356   0.06665   0.08024
 Alpha virt. eigenvalues --    0.08621   0.09203   0.09535   0.11342   0.12164

 Mulliken charges:
               1
     1  C   -0.305054
     2  C    0.702461
     3  C   -0.305591
     4  C    0.176759
     5  C    0.134959
     6  C    0.176859
     7  H    0.281391
     8  F   -0.157588
     9  F   -0.187013
    10  F   -0.172561
    11  F   -0.187101
    12  F   -0.157521
 Sum of Mulliken charges =  -0.00000

 Dipole moment (field-independent basis, Debye):
    X=              1.2685    Y=             -0.7318    Z=             -0.0000  Tot=              1.4644
 Quadrupole moment (field-independent basis, Debye-Ang):
   XX=            -61.2079   YY=            -65.0075   ZZ=            -57.1210
   XY=             -3.2938   XZ=             -0.0000   YZ=              0.0000

 Normal termination of Gaussian 16 at Tue Jan 21 13:11:45 2025.
