 Gaussian 16, Revision A.03,
 Gaussian 16:  ES64L-G16RevA.03 25-Dec-2016

 --------------------------------------------------------
 #p opt freq PBE1PBE/6-311++G(d,p) density=current nosymm
 --------------------------------------------------------

 ------------
 1 2 3-TFB SP
 ------------
 Symbolic Z-matrix:
 Charge = -1 Multiplicity = 2

 SCF Done:  E(UPBE1PBE) =  -529.524614096     A.U. after   28 cycles
 SCF Done:  E(UPBE1PBE) =  -529.524864407     A.U. after   24 cycles
 SCF Done:  E(UPBE1PBE) =  -529.524888178     A.U. after   24 cycles
 Optimization completed.
    -- Stationary point found.
 Normal termination of Gaussian 16 at Wed Jan 29 15:59:14 2025.

 ----------------------------------------------------------------------
 #P Geom=AllCheck Guess=TCheck SCRF=Check GenChk UPBE1PBE/6-311++G(d,p)
  Freq
 ----------------------------------------------------------------------

 Structure from the checkpoint file:  "1-2-3-TFB-ANI.chk"
 ------------
 1 2 3-TFB SP
 ------------
 Charge = -1 Multiplicity = 2

                          Input orientation:
 ---------------------------------------------------------------------
 Center     Atomic      Atomic             Coordinates (Angstroms)
 Number     Number       Type             X           Y           Z
 ---------------------------------------------------------------------
      1          6           0        1.192067    0.688238    0.000000
      2          6           0        1.206145   -0.700004   -0.000000
      3          6           0        0.002506   -1.377194   -0.000000
      4          6           0       -1.205787   -0.696164    0.000000
      5          6           0       -1.191427    0.690772   -0.000000
      6          6           0       -0.003152    1.394563    0.000000
      7          1           0        2.133434    1.231727    0.000000
      8          1           0        2.139544   -1.256770   -0.000000
      9          1           0       -0.018618    2.481296   -0.000000
     10          9           0       -0.033248   -2.718297    0.000000
     11          9           0       -2.364843   -1.365335   -0.000000
     12          9           0       -2.370751    1.330335   -0.000000
 ---------------------------------------------------------------------

 SCF Done:  E(UPBE1PBE) =  -529.524888178     A.U. after    3 cycles

 Alpha  occ. eigenvalues --  -24.70528 -24.69656 -24.69655 -10.22682 -10.22563
 Alpha  occ. eigenvalues --  -10.22547 -10.13559 -10.13543 -10.13426  -1.19448
 Alpha  occ. eigenvalues --   -1.17976  -1.17350  -0.80968  -0.69140  -0.69128
 Alpha  occ. eigenvalues --   -0.57125  -0.56327  -0.50351  -0.47275  -0.47216
 Alpha  occ. eigenvalues --   -0.42980  -0.41956  -0.39748  -0.39040  -0.38473
 Alpha  occ. eigenvalues --   -0.36459  -0.36217  -0.31510  -0.29037  -0.28519
 Alpha  occ. eigenvalues --   -0.27695  -0.16983  -0.16851   0.05190
 Alpha virt. eigenvalues --    0.08504   0.09007   0.09067   0.09087   0.11340
 Alpha virt. eigenvalues --    0.13732   0.15381   0.16049   0.17834   0.18409
 Alpha virt. eigenvalues --    0.18810   0.19026   0.20037   0.21376   0.21501

  Beta  occ. eigenvalues --  -24.70526 -24.69654 -24.69653 -10.22677 -10.22566
  Beta  occ. eigenvalues --  -10.22548 -10.13532 -10.13518 -10.13388  -1.19444
  Beta  occ. eigenvalues --   -1.17973  -1.17346  -0.80933  -0.69105  -0.69075
  Beta  occ. eigenvalues --   -0.57086  -0.56279  -0.50312  -0.47257  -0.47170
  Beta  occ. eigenvalues --   -0.42978  -0.41905  -0.39748  -0.38906  -0.38472
  Beta  occ. eigenvalues --   -0.36402  -0.36207  -0.31458  -0.28981  -0.28417
  Beta  occ. eigenvalues --   -0.27661  -0.16963  -0.16824
  Beta virt. eigenvalues --    0.09044   0.09111   0.09469   0.10604   0.11398
  Beta virt. eigenvalues --    0.14110   0.14809   0.15840   0.16925   0.18754
  Beta virt. eigenvalues --    0.18855   0.19187   0.19919   0.20625   0.22626

 Mulliken charges and spin densities:
               1          2
     1  C    3.749990  -4.181840
     2  C   -0.315657   0.597883
     3  C    0.496035  -0.862854
     4  C   -0.740083   1.030516
     5  C    0.496631  -0.863426
     6  C   -0.315582   0.597786
     7  H   -1.742887   2.050655
     8  H   -1.020756   1.304637
     9  H   -1.021285   1.305185
    10  F   -0.185227   0.011748
    11  F   -0.215942  -0.002049
    12  F   -0.185236   0.011760
 Sum of Mulliken charges =  -1.00000   1.00000

 Dipole moment (field-independent basis, Debye):
    X=             -8.0031    Y=             -4.6222    Z=              0.0000  Tot=              9.2420
 Quadrupole moment (field-independent basis, Debye-Ang):
   XX=           -104.4778   YY=            -95.8875   ZZ=            -67.6162
   XY=             -7.4455   XZ=             -0.0000   YZ=             -0.0000

  Exact polarizability:1243.452-802.6292171.863  -0.005  -0.045 188.839
 Approx polarizability: 838.293-591.2431520.893   0.000   0.000 172.683

                      1                      2                      3
                      A                      A                      A
 Frequencies --    141.6884               208.0071               277.5070
 Red. masses --     13.7201                 3.9660                18.4956
 Frc consts  --      0.1623                 0.1011                 0.8392
 IR Inten    --      5.3810                 0.0001                10.9135

                      4                      5                      6
                      A                      A                      A
 Frequencies --    305.4993               305.6401               484.9597
 Red. masses --     16.0003                 7.4024                12.9103
 Frc consts  --      0.8798                 0.4074                 1.7889
 IR Inten    --      4.2476                99.4031                 9.2968

                      7                      8                      9
                      A                      A                      A
 Frequencies --    506.9704               520.6499               546.1763
 Red. masses --      7.2444                 4.0208                 5.0397
 Frc consts  --      1.0970                 0.6422                 0.8858
 IR Inten    --     99.8674                15.3272                 0.0024

                     10                     11                     12
                      A                      A                      A
 Frequencies --    578.9862               697.9553               714.2149
 Red. masses --      6.1186                 9.4978                 3.5119
 Frc consts  --      1.2085                 2.7260                 1.0555
 IR Inten    --    168.3762                87.1487               269.7388

                     13                     14                     15
                      A                      A                      A
 Frequencies --    814.2386               844.5431               904.7710
 Red. masses --      6.0837                 1.5512                 1.4923
 Frc consts  --      2.3764                 0.6519                 0.7197
 IR Inten    --    214.1114              1870.1689                 0.1342

                     16                     17                     18
                      A                      A                      A
 Frequencies --    986.4705              1032.5832              1081.2898
 Red. masses --      1.2519                 5.7537                 1.6690
 Frc consts  --      0.7178                 3.6145                 1.1497
 IR Inten    --    134.7762               200.9382               175.7315

                     19                     20                     21
                      A                      A                      A
 Frequencies --   1170.7017              1232.7703              1272.8251
 Red. masses --      1.1286                 7.2754                 1.7316
 Frc consts  --      0.9113                 6.5144                 1.6529
 IR Inten    --    258.5440                 4.6360                37.2727

                     22                     23                     24
                      A                      A                      A
 Frequencies --   1330.2400              1374.3648              1522.9399
 Red. masses --      3.5757                10.2575                 3.2625
 Frc consts  --      3.7280                11.4155                 4.4582
 IR Inten    --    114.8435                25.7726               219.9748

                     25                     26                     27
                      A                      A                      A
 Frequencies --   1545.4528              1680.3327              1682.6948
 Red. masses --      5.3753                 8.6097                 9.7215
 Frc consts  --      7.5642                14.3229                16.2179
 IR Inten    --    128.5598                 5.1324               174.7202

                     28                     29                     30
                      A                      A                      A
 Frequencies --   3129.1697              3166.8517              3172.4533
 Red. masses --      1.0978                 1.0889                 1.0928
 Frc consts  --      6.3333                 6.4339                 6.4803
 IR Inten    --    987.8765                11.7988               250.5628

 - Thermochemistry -
 -------------------
 Temperature   298.150 Kelvin.  Pressure   1.00000 Atm.
 Atom     1 has atomic number  6 and mass  12.00000

 Molecular mass:   132.01868 amu.
 Principal axes and moments of inertia in atomic units:
                           1         2         3
     Eigenvalues --   777.247821022.417381799.66519
           X           -0.50001   0.86602  -0.00000
           Y            0.86602   0.50001  -0.00000
           Z           -0.00000   0.00000   1.00000
 This molecule is an asymmetric top.
 Rotational symmetry number  1.
 Warning -- assumption of classical behavior for rotation
           may cause significant error
 Rotational temperatures (Kelvin)      0.11144     0.08471     0.04813
 Rotational constants (GHZ):           2.32196     1.76517     1.00282
 Zero-point vibrational energy     198777.2 (Joules/Mol)
                                   47.50888 (Kcal/Mol)
 Warning -- explicit consideration of  10 degrees of freedom as
           vibrations may cause significant error
 Vibrational temperatures:    203.86   299.28   399.27   439.55   439.75
          (Kelvin)            697.75   729.42   749.10   785.83   833.03
                             1004.20  1027.60  1171.51  1215.11  1301.76
                             1419.31  1485.66  1555.73  1684.38  1773.68
                             1831.31  1913.92  1977.40  2191.17  2223.56
                             2417.62  2421.02  4502.18  4556.39  4564.45

 Zero-point correction=                           0.075710 (Hartree/Particle)
 Thermal correction to Energy=                    0.082642
 Thermal correction to Enthalpy=                  0.083586
 Thermal correction to Gibbs Free Energy=         0.043503
 Sum of electronic and zero-point Energies=           -529.449178
 Sum of electronic and thermal Energies=              -529.442246
 Sum of electronic and thermal Enthalpies=            -529.441302
 Sum of electronic and thermal Free Energies=         -529.481386

                     E (Thermal)             CV                S
                      KCal/Mol        Cal/Mol-Kelvin    Cal/Mol-Kelvin
 Total                   51.859             26.090             84.363
 Electronic               0.000              0.000              1.377
 Translational            0.889              2.981             40.546
 Rotational               0.889              2.981             28.749
 Vibrational             50.081             20.129             13.691
 Vibration     1          0.615              1.912              2.781
 Vibration     2          0.641              1.828              2.061
 Vibration     3          0.678              1.715              1.549
 Vibration     4          0.696              1.663              1.387
 Vibration     5          0.696              1.663              1.386
 Vibration     6          0.841              1.283              0.697
 Vibration     7          0.862              1.235              0.641
 Vibration     8          0.876              1.204              0.608
 Vibration     9          0.901              1.148              0.552
 Vibration    10          0.936              1.077              0.487

 Optimization completed.
    -- Stationary point found.
 Normal termination of Gaussian 16 at Wed Jan 29 16:09:15 2025.
