 Gaussian 16, Revision A.03,
 Gaussian 16:  ES64L-G16RevA.03 25-Dec-2016

 --------------------------------------------------------
 #p opt freq PBE1PBE/6-311++G(d,p) density=current nosymm
 --------------------------------------------------------

 ------------
 1 2 3-TFB SP
 ------------
 Symbolic Z-matrix:
 Charge =  1 Multiplicity = 2

 SCF Done:  E(UPBE1PBE) =  -529.187170621     A.U. after   24 cycles
 SCF Done:  E(UPBE1PBE) =  -529.196693036     A.U. after   18 cycles
 SCF Done:  E(UPBE1PBE) =  -529.197389893     A.U. after   17 cycles
 SCF Done:  E(UPBE1PBE) =  -529.197410983     A.U. after   15 cycles
 SCF Done:  E(UPBE1PBE) =  -529.197412217     A.U. after   13 cycles
 Optimization completed.
    -- Stationary point found.
 Normal termination of Gaussian 16 at Wed Jan 29 15:59:57 2025.

 ----------------------------------------------------------------------
 #P Geom=AllCheck Guess=TCheck SCRF=Check GenChk UPBE1PBE/6-311++G(d,p)
  Freq
 ----------------------------------------------------------------------

 Structure from the checkpoint file:  "1-2-3-TFB-CAT.chk"
 ------------
 1 2 3-TFB SP
 ------------
 Charge =  1 Multiplicity = 2

                          Input orientation:
 ---------------------------------------------------------------------
 Center     Atomic      Atomic             Coordinates (Angstroms)
 Number     Number       Type             X           Y           Z
 ---------------------------------------------------------------------
      1          6           0        1.170463    0.675907   -0.000000
      2          6           0        1.214072   -0.736635    0.000000
      3          6           0        0.035679   -1.420557    0.000000
      4          6           0       -1.204318   -0.695455    0.000000
      5          6           0       -1.212208    0.741189    0.000000
      6          6           0       -0.030784    1.419940    0.000000
      7          1           0        2.110914    1.218712    0.000000
      8          1           0        2.156722   -1.272122   -0.000000
      9          1           0       -0.023319    2.504038    0.000000
     10          9           0       -0.045254   -2.716121   -0.000000
     11          9           0       -2.311401   -1.334386   -0.000000
     12          9           0       -2.374698    1.318656   -0.000000
 ---------------------------------------------------------------------

 SCF Done:  E(UPBE1PBE) =  -529.197412217     A.U. after    1 cycles

 Alpha  occ. eigenvalues --  -25.05803 -25.01774 -25.01762 -10.60926 -10.57300
 Alpha  occ. eigenvalues --  -10.57288 -10.50919 -10.47350 -10.47343  -1.56011
 Alpha  occ. eigenvalues --   -1.51359  -1.51116  -1.15013  -1.03290  -1.03224
 Alpha  occ. eigenvalues --   -0.90750  -0.90623  -0.83706  -0.81134  -0.81044
 Alpha  occ. eigenvalues --   -0.78437  -0.75657  -0.72282  -0.72068  -0.72027
 Alpha  occ. eigenvalues --   -0.69798  -0.68920  -0.64405  -0.61936  -0.61277
 Alpha  occ. eigenvalues --   -0.61158  -0.51754  -0.50138
 Alpha virt. eigenvalues --   -0.27168  -0.23498  -0.17521  -0.13924  -0.10568
 Alpha virt. eigenvalues --   -0.09630  -0.09054  -0.08396  -0.08315  -0.08269
 Alpha virt. eigenvalues --   -0.06137  -0.04948  -0.04401  -0.03792  -0.02681

  Beta  occ. eigenvalues --  -25.05372 -25.01676 -25.01664 -10.60178 -10.57210
  Beta  occ. eigenvalues --  -10.57200 -10.50336 -10.47402 -10.47395  -1.55121
  Beta  occ. eigenvalues --   -1.51154  -1.50870  -1.13962  -1.03077  -1.01375
  Beta  occ. eigenvalues --   -0.90273  -0.89851  -0.83335  -0.80844  -0.80764
  Beta  occ. eigenvalues --   -0.75479  -0.75474  -0.71706  -0.71592  -0.70647
  Beta  occ. eigenvalues --   -0.69514  -0.68675  -0.64233  -0.61674  -0.60840
  Beta  occ. eigenvalues --   -0.58450  -0.49810
  Beta virt. eigenvalues --   -0.40857  -0.22895  -0.22109  -0.16975  -0.13769
  Beta virt. eigenvalues --   -0.10541  -0.08995  -0.08889  -0.08147  -0.07984
  Beta virt. eigenvalues --   -0.06519  -0.05867  -0.04540  -0.04375  -0.03709

 Mulliken charges and spin densities:
               1          2
     1  C   -0.217071   0.465093
     2  C    0.283433  -0.097894
     3  C   -0.277515   0.115561
     4  C    0.381016   0.389595
     5  C   -0.277227   0.116806
     6  C    0.283038  -0.099000
     7  H    0.323091  -0.025015
     8  H    0.319867  -0.000441
     9  H    0.319829  -0.000384
    10  F   -0.057255   0.019816
    11  F   -0.024191   0.095853
    12  F   -0.057016   0.020009
 Sum of Mulliken charges =   1.00000   1.00000

 Dipole moment (field-independent basis, Debye):
    X=              1.2814    Y=              0.7417    Z=              0.0000  Tot=              1.4806
 Quadrupole moment (field-independent basis, Debye-Ang):
   XX=            -35.8153   YY=            -37.3322   ZZ=            -46.2182
   XY=              1.3055   XZ=             -0.0000   YZ=             -0.0000

  Exact polarizability:  81.625   3.306  77.799  -0.000  -0.000  32.033
 Approx polarizability: 135.727  13.744 119.762  -0.000  -0.000  45.950

                      1                      2                      3
                      A                      A                      A
 Frequencies --    124.8239               217.2716               255.4382
 Red. masses --     14.4207                 4.8276                15.2260
 Frc consts  --      0.1324                 0.1343                 0.5853
 IR Inten    --      1.1791                 0.0000                15.6829

                      4                      5                      6
                      A                      A                      A
 Frequencies --    305.9845               308.6833               374.4982
 Red. masses --     16.3472                 5.3219                10.8646
 Frc consts  --      0.9018                 0.2988                 0.8978
 IR Inten    --      6.3429                 0.0993                57.3064

                      7                      8                      9
                      A                      A                      A
 Frequencies --    420.6339               473.2210               542.3123
 Red. masses --      2.9499                12.4722                 5.1412
 Frc consts  --      0.3075                 1.6456                 0.8909
 IR Inten    --      2.5815                 0.1020                 0.0000

                     10                     11                     12
                      A                      A                      A
 Frequencies --    573.7028               685.7386               716.1924
 Red. masses --      5.2405                10.2496                 9.2868
 Frc consts  --      1.0162                 2.8397                 2.8066
 IR Inten    --      4.6017                 0.9825                20.5232

                     13                     14                     15
                      A                      A                      A
 Frequencies --    822.3118               828.4992               910.4256
 Red. masses --      5.9402                 1.2680                 1.3920
 Frc consts  --      2.3666                 0.5128                 0.6798
 IR Inten    --      0.3147                75.5608                 0.0001

                     16                     17                     18
                      A                      A                      A
 Frequencies --    967.6462              1041.0990              1065.0134
 Red. masses --      1.4272                 2.0285                 6.6863
 Frc consts  --      0.7874                 1.2954                 4.4683
 IR Inten    --      5.9785                 8.7621                 6.1479

                     19                     20                     21
                      A                      A                      A
 Frequencies --   1108.7024              1301.9223              1347.0292
 Red. masses --      1.5692                 1.6179                 2.7980
 Frc consts  --      1.1365                 1.6157                 2.9912
 IR Inten    --    176.6442                 1.6738                 0.0628

                     22                     23                     24
                      A                      A                      A
 Frequencies --   1375.7851              1390.3292              1423.3523
 Red. masses --      4.2918                 2.3259                 9.2974
 Frc consts  --      4.7862                 2.6489                11.0978
 IR Inten    --      2.1737               272.6770                11.8412

                     25                     26                     27
                      A                      A                      A
 Frequencies --   1547.5095              1580.7112              1717.5673
 Red. masses --      9.8957                 4.4683                 8.7181
 Frc consts  --     13.9625                 6.5781                15.1530
 IR Inten    --    587.4071               238.2513                63.1799

                     28                     29                     30
                      A                      A                      A
 Frequencies --   3216.2977              3233.7428              3236.4770
 Red. masses --      1.0916                 1.0951                 1.0976
 Frc consts  --      6.6531                 6.7468                 6.7736
 IR Inten    --      2.3284                28.6393                29.2516

 - Thermochemistry -
 -------------------
 Temperature   298.150 Kelvin.  Pressure   1.00000 Atm.
 Atom     1 has atomic number  6 and mass  12.00000

 Molecular mass:   132.01868 amu.
 Principal axes and moments of inertia in atomic units:
                           1         2         3
     Eigenvalues --   754.832621036.868171791.70079
           X           -0.49985   0.86611  -0.00000
           Y            0.86611   0.49985   0.00000
           Z           -0.00000  -0.00000   1.00000
 This molecule is an asymmetric top.
 Rotational symmetry number  1.
 Warning -- assumption of classical behavior for rotation
           may cause significant error
 Rotational temperatures (Kelvin)      0.11475     0.08353     0.04834
 Rotational constants (GHZ):           2.39092     1.74057     1.00728
 Zero-point vibrational energy     198059.3 (Joules/Mol)
                                   47.33730 (Kcal/Mol)
 Warning -- explicit consideration of  10 degrees of freedom as
           vibrations may cause significant error
 Vibrational temperatures:    179.59   312.61   367.52   440.24   444.13
          (Kelvin)            538.82   605.20   680.86   780.27   825.43
                              986.62  1030.44  1183.12  1192.03  1309.90
                             1392.23  1497.91  1532.32  1595.18  1873.18
                             1938.07  1979.45  2000.37  2047.89  2226.52
                             2274.29  2471.20  4627.54  4652.63  4656.57

 Zero-point correction=                           0.075437 (Hartree/Particle)
 Thermal correction to Energy=                    0.082630
 Thermal correction to Enthalpy=                  0.083574
 Thermal correction to Gibbs Free Energy=         0.042994
 Sum of electronic and zero-point Energies=           -529.121975
 Sum of electronic and thermal Energies=              -529.114782
 Sum of electronic and thermal Enthalpies=            -529.113838
 Sum of electronic and thermal Free Energies=         -529.154418

                     E (Thermal)             CV                S
                      KCal/Mol        Cal/Mol-Kelvin    Cal/Mol-Kelvin
 Total                   51.851             26.725             85.407
 Electronic               0.000              0.000              1.377
 Translational            0.889              2.981             40.546
 Rotational               0.889              2.981             28.730
 Vibrational             50.074             20.763             14.754
 Vibration     1          0.610              1.928              3.024
 Vibration     2          0.646              1.815              1.982
 Vibration     3          0.666              1.754              1.693
 Vibration     4          0.696              1.662              1.384
 Vibration     5          0.698              1.657              1.369
 Vibration     6          0.746              1.524              1.061
 Vibration     7          0.783              1.425              0.890
 Vibration     8          0.830              1.309              0.729
 Vibration     9          0.897              1.157              0.560
 Vibration    10          0.930              1.088              0.497

 Optimization completed.
    -- Stationary point found.
 Normal termination of Gaussian 16 at Wed Jan 29 16:09:20 2025.
