 Gaussian 16, Revision A.03,
 Gaussian 16:  ES64L-G16RevA.03 25-Dec-2016

 -----------------------------------------------
 #p PBE1PBE/6-311++G(d,p) density=current nosymm
 -----------------------------------------------

 ------------
 1 2 3-TFB SP
 ------------
 Symbolic Z-matrix:
 Charge =  0 Multiplicity = 1

                          Input orientation:
 ---------------------------------------------------------------------
 Center     Atomic      Atomic             Coordinates (Angstroms)
 Number     Number       Type             X           Y           Z
 ---------------------------------------------------------------------
      1          6           0        1.195040    0.689993    0.000000
      2          6           0        1.205558   -0.699469    0.000000
      3          6           0        0.001345   -1.378893    0.000000
      4          6           0       -1.207333   -0.697138    0.000000
      5          6           0       -1.193271    0.690543    0.000000
      6          6           0       -0.002939    1.393901    0.000000
      7          1           0        2.133568    1.231809    0.000000
      8          1           0        2.128758   -1.266312    0.000000
      9          1           0       -0.032335    2.476818    0.000000
     10          9           0       -0.024482   -2.711724    0.000000
     11          9           0       -2.357420   -1.360639    0.000000
     12          9           0       -2.360620    1.334279    0.000000
 ---------------------------------------------------------------------

 SCF Done:  E(RPBE1PBE) =  -529.543770243     A.U. after   12 cycles

 Alpha  occ. eigenvalues --  -24.80890 -24.80559 -24.80557 -10.34024 -10.34010
 Alpha  occ. eigenvalues --  -10.33884 -10.26121 -10.25692 -10.25687  -1.30336
 Alpha  occ. eigenvalues --   -1.29146  -1.28338  -0.92596  -0.80866  -0.80791
 Alpha  occ. eigenvalues --   -0.68612  -0.67945  -0.61478  -0.58536  -0.58507
 Alpha  occ. eigenvalues --   -0.53870  -0.53649  -0.51264  -0.50726  -0.49102
 Alpha  occ. eigenvalues --   -0.48071  -0.46940  -0.43270  -0.40660  -0.40252
 Alpha  occ. eigenvalues --   -0.39272  -0.28535  -0.28327
 Alpha virt. eigenvalues --   -0.02719  -0.02611  -0.00244   0.00060   0.01838
 Alpha virt. eigenvalues --    0.04118   0.05622   0.05889   0.07838   0.08660
 Alpha virt. eigenvalues --    0.09304   0.09541   0.10583   0.10616   0.11859

 Mulliken charges:
               1
     1  C   -0.412737
     2  C    0.285305
     3  C   -0.334941
     4  C    0.292848
     5  C   -0.335138
     6  C    0.285179
     7  H    0.229549
     8  H    0.244425
     9  H    0.244421
    10  F   -0.154867
    11  F   -0.189236
    12  F   -0.154810
 Sum of Mulliken charges =  -0.00000

 Dipole moment (field-independent basis, Debye):
    X=              2.6828    Y=              1.5488    Z=              0.0000  Tot=              3.0978
 Quadrupole moment (field-independent basis, Debye-Ang):
   XX=            -50.6489   YY=            -50.6236   ZZ=            -50.3262
   XY=             -0.0184   XZ=             -0.0000   YZ=             -0.0000

 Normal termination of Gaussian 16 at Tue Jan 14 14:16:17 2025.
