 Gaussian 16, Revision A.03,
 Gaussian 16:  ES64L-G16RevA.03 25-Dec-2016

 -------------------------------------
 #p PBE0/6-311++G(d,p) density=current
 -------------------------------------

 ----------
 benzene SP
 ----------
 Symbolic Z-matrix:
 Charge =  0 Multiplicity = 1

                         Standard orientation:
 ---------------------------------------------------------------------
 Center     Atomic      Atomic             Coordinates (Angstroms)
 Number     Number       Type             X           Y           Z
 ---------------------------------------------------------------------
      1          6           0       -1.204306   -0.695341    0.000000
      2          6           0       -1.204306    0.695341    0.000000
      3          6           0        0.000000    1.390709    0.000000
      4          6           0        1.204306    0.695341    0.000000
      5          6           0        1.204306   -0.695341    0.000000
      6          6           0       -0.000000   -1.390709    0.000000
      7          1           0       -2.144234   -1.237957    0.000000
      8          1           0       -2.144234    1.237957    0.000000
      9          1           0        0.000000    2.476012    0.000000
     10          1           0        2.144234    1.237957    0.000000
     11          1           0        2.144234   -1.237957    0.000000
     12          1           0       -0.000000   -2.476012    0.000000
 ---------------------------------------------------------------------

 SCF Done:  E(RPBE0DH) =  -231.879959711     A.U. after    9 cycles
 E2(PBE0DH) =    -0.1288158923D+00 E(PBE0DH) =    -0.23200877560353D+03

 The electronic state is 1-AG.
 Alpha  occ. eigenvalues --  -10.56949 -10.56910 -10.56910 -10.56825 -10.56825
 Alpha  occ. eigenvalues --  -10.56784  -0.98380  -0.86268  -0.86266  -0.69945
 Alpha  occ. eigenvalues --   -0.69945  -0.60770  -0.53908  -0.52505  -0.49486
 Alpha  occ. eigenvalues --   -0.49483  -0.43403  -0.40960  -0.40959  -0.30005
 Alpha  occ. eigenvalues --   -0.30003
 Alpha virt. eigenvalues --    0.01733   0.02671   0.02671   0.03080   0.03080
 Alpha virt. eigenvalues --    0.05130   0.05130   0.07716   0.09075   0.10598
 Alpha virt. eigenvalues --    0.11664   0.11665   0.12636   0.14333   0.14580

 Mulliken charges:
               1
     1  C   -0.207966
     2  C   -0.207966
     3  C   -0.208107
     4  C   -0.207966
     5  C   -0.207966
     6  C   -0.208107
     7  H    0.208013
     8  H    0.208013
     9  H    0.208013
    10  H    0.208013
    11  H    0.208013
    12  H    0.208013
 Sum of Mulliken charges =  -0.00000

 Dipole moment (field-independent basis, Debye):
    X=              0.0000    Y=             -0.0000    Z=              0.0000  Tot=              0.0000
 Quadrupole moment (field-independent basis, Debye-Ang):
   XX=            -31.5064   YY=            -31.5054   ZZ=            -40.3287
   XY=              0.0000   XZ=             -0.0000   YZ=              0.0000

 Normal termination of Gaussian 16 at Wed Jan  8 10:38:43 2025.
