 Gaussian 16, Revision A.03,
 Gaussian 16:  ES64L-G16RevA.03 25-Dec-2016

 --------------------------------------------------------
 #p opt freq PBE1PBE/6-311++G(d,p) density=current nosymm
 --------------------------------------------------------

 ----------
 1 4-DFB SP
 ----------
 Symbolic Z-matrix:
 Charge = -1 Multiplicity = 2

 SCF Done:  E(UPBE1PBE) =  -430.354296073     A.U. after   18 cycles
 SCF Done:  E(UPBE1PBE) =  -430.354411745     A.U. after   15 cycles
 SCF Done:  E(UPBE1PBE) =  -430.354425436     A.U. after   14 cycles
 Optimization completed.
    -- Stationary point found.
 Normal termination of Gaussian 16 at Wed Jan 29 15:49:39 2025.

 ----------------------------------------------------------------------
 #P Geom=AllCheck Guess=TCheck SCRF=Check GenChk UPBE1PBE/6-311++G(d,p)
  Freq
 ----------------------------------------------------------------------

 Structure from the checkpoint file:  "1-4-DFB-ANI.chk"
 ----------
 1 4-DFB SP
 ----------
 Charge = -1 Multiplicity = 2

                          Input orientation:
 ---------------------------------------------------------------------
 Center     Atomic      Atomic             Coordinates (Angstroms)
 Number     Number       Type             X           Y           Z
 ---------------------------------------------------------------------
      1          6           0        1.212192    0.694782    0.000000
      2          6           0        1.212192   -0.694782   -0.000000
      3          6           0        0.000000   -1.360765   -0.000000
      4          6           0       -1.212192   -0.694782   -0.000000
      5          6           0       -1.212192    0.694782    0.000000
      6          6           0        0.000000    1.360765    0.000000
      7          1           0        2.146078    1.249651    0.000000
      8          1           0        2.146078   -1.249651   -0.000000
      9          1           0       -2.146078   -1.249651   -0.000000
     10          1           0       -2.146078    1.249651    0.000000
     11          9           0        0.000000   -2.710559    0.000000
     12          9           0        0.000000    2.710559   -0.000000
 ---------------------------------------------------------------------

 SCF Done:  E(UPBE1PBE) =  -430.354425436     A.U. after    3 cycles

 Alpha  occ. eigenvalues --  -24.67455 -24.67454 -10.20568 -10.20567 -10.13354
 Alpha  occ. eigenvalues --  -10.13352 -10.13292 -10.13292  -1.15664  -1.15652
 Alpha  occ. eigenvalues --   -0.79651  -0.68796  -0.67172  -0.55647  -0.53776
 Alpha  occ. eigenvalues --   -0.46809  -0.45345  -0.43099  -0.38769  -0.37836
 Alpha  occ. eigenvalues --   -0.36417  -0.34890  -0.34755  -0.32891  -0.29431
 Alpha  occ. eigenvalues --   -0.27018  -0.25954  -0.17682  -0.15074   0.05137
 Alpha virt. eigenvalues --    0.07182   0.08269   0.09012   0.10180   0.10481
 Alpha virt. eigenvalues --    0.12932   0.15748   0.16034   0.17508   0.18183
 Alpha virt. eigenvalues --    0.18723   0.19743   0.20222   0.20787   0.21008

  Beta  occ. eigenvalues --  -24.67450 -24.67449 -10.20572 -10.20571 -10.13330
  Beta  occ. eigenvalues --  -10.13328 -10.13268 -10.13268  -1.15655  -1.15644
  Beta  occ. eigenvalues --   -0.79615  -0.68741  -0.67135  -0.55570  -0.53739
  Beta  occ. eigenvalues --   -0.46722  -0.45295  -0.43073  -0.38759  -0.37832
  Beta  occ. eigenvalues --   -0.36324  -0.34802  -0.34721  -0.32809  -0.29402
  Beta  occ. eigenvalues --   -0.26987  -0.25891  -0.17639  -0.15061
  Beta virt. eigenvalues --    0.08332   0.09559   0.10475   0.10534   0.11047
  Beta virt. eigenvalues --    0.12897   0.13726   0.16463   0.17300   0.18011
  Beta virt. eigenvalues --    0.18559   0.18944   0.20295   0.21705   0.21911

 Mulliken charges and spin densities:
               1          2
     1  C    0.524955  -0.379914
     2  C    0.524955  -0.379914
     3  C    0.354401  -1.035364
     4  C    0.524955  -0.379914
     5  C    0.524955  -0.379914
     6  C    0.354401  -1.035364
     7  H   -0.858979   1.136456
     8  H   -0.858979   1.136456
     9  H   -0.858979   1.136456
    10  H   -0.858979   1.136456
    11  F   -0.186353   0.022280
    12  F   -0.186353   0.022280
 Sum of Mulliken charges =  -1.00000   1.00000

 Dipole moment (field-independent basis, Debye):
    X=              0.0000    Y=              0.0000    Z=              0.0000  Tot=              0.0000
 Quadrupole moment (field-independent basis, Debye-Ang):
   XX=           -106.1177   YY=            -81.2840   ZZ=            -64.4739
   XY=             -0.0000   XZ=              0.0000   YZ=              0.0000

  Exact polarizability:4330.022  -0.0002975.104  -0.000  -0.000 206.736
 Approx polarizability:4958.837   0.0001132.857  -0.000  -0.000 181.823

                      1                      2                      3
                      A                      A                      A
 Frequencies --    154.8523               349.2772               378.0198
 Red. masses --      9.4548                11.6426                 7.5457
 Frc consts  --      0.1336                 0.8368                 0.6353
 IR Inten    --     15.8306               178.5381                 0.0000

                      4                      5                      6
                      A                      A                      A
 Frequencies --    440.2886               456.5904               489.0302
 Red. masses --      4.7777                13.3490                 2.3330
 Frc consts  --      0.5457                 1.6397                 0.3287
 IR Inten    --      0.0000                 0.0000               589.3740

                      7                      8                      9
                      A                      A                      A
 Frequencies --    536.3285               637.2157               693.4622
 Red. masses --      3.2647                 7.2207                 4.4032
 Frc consts  --      0.5533                 1.7274                 1.2476
 IR Inten    --      0.0000                 0.0000                 0.0000

                     10                     11                     12
                      A                      A                      A
 Frequencies --    731.2791               818.0190               871.8902
 Red. masses --      6.9523                 1.2456                 6.7970
 Frc consts  --      2.1905                 0.4911                 3.0443
 IR Inten    --   1814.2997                 0.0000                 0.0000

                     13                     14                     15
                      A                      A                      A
 Frequencies --    882.5122               934.5211               963.9338
 Red. masses --      1.7486                 1.2876                 1.2999
 Frc consts  --      0.8024                 0.6625                 0.7117
 IR Inten    --   1471.2537                 0.0000                 0.0000

                     16                     17                     18
                      A                      A                      A
 Frequencies --   1003.3078              1102.7970              1151.5318
 Red. masses --      2.3150                 1.1953                 1.0873
 Frc consts  --      1.3730                 0.8565                 0.8495
 IR Inten    --   1295.3576              1828.1320                 0.0000

                     19                     20                     21
                      A                      A                      A
 Frequencies --   1218.7875              1276.8822              1293.0781
 Red. masses --      2.8553                10.4745                 1.2784
 Frc consts  --      2.4989                10.0620                 1.2594
 IR Inten    --    113.4672                 0.0000                 0.0000

                     22                     23                     24
                      A                      A                      A
 Frequencies --   1371.7018              1452.7896              1534.3719
 Red. masses --     11.5213                 3.8417                 2.9598
 Frc consts  --     12.7724                 4.7772                 4.1056
 IR Inten    --     14.3607                37.6002               988.3799

                     25                     26                     27
                      A                      A                      A
 Frequencies --   1669.7368              1679.3356              3162.1976
 Red. masses --      7.2143                 8.0090                 1.0973
 Frc consts  --     11.8506                13.3077                 6.4650
 IR Inten    --      0.0000                 0.0000                 0.0000

                     28                     29                     30
                      A                      A                      A
 Frequencies --   3173.8794              3182.4402              3186.7004
 Red. masses --      1.0894                 1.0962                 1.0904
 Frc consts  --      6.4655                 6.5409                 6.5238
 IR Inten    --      9.2069              1259.2244                 0.0000

 - Thermochemistry -
 -------------------
 Temperature   298.150 Kelvin.  Pressure   1.00000 Atm.
 Atom     1 has atomic number  6 and mass  12.00000

 Molecular mass:   114.02811 amu.
 Principal axes and moments of inertia in atomic units:
                           1         2         3
     Eigenvalues --   318.176411260.849731579.02613
           X            0.00000   1.00000  -0.00000
           Y            1.00000  -0.00000   0.00000
           Z           -0.00000   0.00000   1.00000
 This molecule is an asymmetric top.
 Rotational symmetry number  2.
 Rotational temperatures (Kelvin)      0.27222     0.06869     0.05485
 Rotational constants (GHZ):           5.67214     1.43137     1.14295
 Zero-point vibrational energy     220093.5 (Joules/Mol)
                                   52.60361 (Kcal/Mol)
 Warning -- explicit consideration of   7 degrees of freedom as
           vibrations may cause significant error
 Vibrational temperatures:    222.80   502.53   543.89   633.48   656.93
          (Kelvin)            703.61   771.66   916.81   997.74  1052.15
                             1176.95  1254.46  1269.74  1344.57  1386.89
                             1443.54  1586.68  1656.80  1753.56  1837.15
                             1860.45  1973.57  2090.24  2207.62  2402.38
                             2416.19  4549.70  4566.50  4578.82  4584.95

 Zero-point correction=                           0.083829 (Hartree/Particle)
 Thermal correction to Energy=                    0.089733
 Thermal correction to Enthalpy=                  0.090677
 Thermal correction to Gibbs Free Energy=         0.053712
 Sum of electronic and zero-point Energies=           -430.270596
 Sum of electronic and thermal Energies=              -430.264693
 Sum of electronic and thermal Enthalpies=            -430.263748
 Sum of electronic and thermal Free Energies=         -430.300713

                     E (Thermal)             CV                S
                      KCal/Mol        Cal/Mol-Kelvin    Cal/Mol-Kelvin
 Total                   56.308             22.996             77.799
 Electronic               0.000              0.000              1.377
 Translational            0.889              2.981             40.109
 Rotational               0.889              2.981             26.563
 Vibrational             54.531             17.034              9.750
 Vibration     1          0.620              1.897              2.612
 Vibration     2          0.727              1.577              1.169
 Vibration     3          0.748              1.517              1.047
 Vibration     4          0.800              1.382              0.826
 Vibration     5          0.815              1.346              0.776
 Vibration     6          0.845              1.274              0.686
 Vibration     7          0.891              1.170              0.573

 Optimization completed.
    -- Stationary point found.
 Normal termination of Gaussian 16 at Wed Jan 29 15:56:19 2025.
