 Gaussian 16, Revision A.03,
 Gaussian 16:  ES64L-G16RevA.03 25-Dec-2016

 --------------------------------------------------------
 #p opt freq PBE1PBE/6-311++G(d,p) density=current nosymm
 --------------------------------------------------------

 ----------
 1 4-DFB SP
 ----------
 Symbolic Z-matrix:
 Charge =  1 Multiplicity = 2

 SCF Done:  E(UPBE1PBE) =  -430.036409732     A.U. after   13 cycles
 SCF Done:  E(UPBE1PBE) =  -430.045970767     A.U. after   12 cycles
 SCF Done:  E(UPBE1PBE) =  -430.046590736     A.U. after   10 cycles
 SCF Done:  E(UPBE1PBE) =  -430.046615683     A.U. after   10 cycles
 Optimization completed.
    -- Stationary point found.
 Normal termination of Gaussian 16 at Wed Jan 29 15:48:54 2025.

 ----------------------------------------------------------------------
 #P Geom=AllCheck Guess=TCheck SCRF=Check GenChk UPBE1PBE/6-311++G(d,p)
  Freq
 ----------------------------------------------------------------------

 Structure from the checkpoint file:  "1-4-DFB-CAT.chk"
 ----------
 1 4-DFB SP
 ----------
 Charge =  1 Multiplicity = 2

                          Input orientation:
 ---------------------------------------------------------------------
 Center     Atomic      Atomic             Coordinates (Angstroms)
 Number     Number       Type             X           Y           Z
 ---------------------------------------------------------------------
      1          6           0        1.251352    0.681201    0.000000
      2          6           0        1.251352   -0.681201   -0.000000
      3          6           0       -0.000000   -1.351392   -0.000000
      4          6           0       -1.251352   -0.681201    0.000000
      5          6           0       -1.251352    0.681201   -0.000000
      6          6           0       -0.000000    1.351392    0.000000
      7          1           0        2.164479    1.266506    0.000000
      8          1           0        2.164479   -1.266506   -0.000000
      9          1           0       -2.164479   -1.266506   -0.000000
     10          1           0       -2.164479    1.266506    0.000000
     11          9           0        0.000000   -2.643469    0.000000
     12          9           0        0.000000    2.643469   -0.000000
 ---------------------------------------------------------------------

 SCF Done:  E(UPBE1PBE) =  -430.046615683     A.U. after    1 cycles

 Alpha  occ. eigenvalues --  -25.02882 -25.02882 -10.58384 -10.58383 -10.47755
 Alpha  occ. eigenvalues --  -10.47753 -10.47681 -10.47680  -1.52655  -1.52643
 Alpha  occ. eigenvalues --   -1.14100  -1.03441  -1.01373  -0.89907  -0.88572
 Alpha  occ. eigenvalues --   -0.80569  -0.80360  -0.78258  -0.75064  -0.74148
 Alpha  occ. eigenvalues --   -0.69258  -0.68870  -0.68660  -0.67167  -0.62992
 Alpha  occ. eigenvalues --   -0.61143  -0.58820  -0.51913  -0.49682
 Alpha virt. eigenvalues --   -0.25524  -0.24498  -0.13581  -0.13025  -0.11329
 Alpha virt. eigenvalues --   -0.11324  -0.09593  -0.08569  -0.07670  -0.06744
 Alpha virt. eigenvalues --   -0.06485  -0.04763  -0.04587  -0.03398  -0.03202

  Beta  occ. eigenvalues --  -25.02508 -25.02508 -10.57790 -10.57789 -10.47705
  Beta  occ. eigenvalues --  -10.47703 -10.47629 -10.47629  -1.51854  -1.51842
  Beta  occ. eigenvalues --   -1.13108  -1.03183  -0.99567  -0.89304  -0.87893
  Beta  occ. eigenvalues --   -0.80257  -0.79901  -0.77944  -0.72253  -0.71302
  Beta  occ. eigenvalues --   -0.68821  -0.68607  -0.68599  -0.66959  -0.62649
  Beta  occ. eigenvalues --   -0.58475  -0.58225  -0.51343
  Beta virt. eigenvalues --   -0.39422  -0.22930  -0.21339  -0.13481  -0.12548
  Beta virt. eigenvalues --   -0.11333  -0.11058  -0.08343  -0.07653  -0.07525
  Beta virt. eigenvalues --   -0.06593  -0.06218  -0.04721  -0.03955  -0.03376

 Mulliken charges and spin densities:
               1          2
     1  C    0.143429   0.015590
     2  C    0.143429   0.015590
     3  C   -0.451265   0.404847
     4  C    0.143429   0.015590
     5  C    0.143429   0.015590
     6  C   -0.451265   0.404847
     7  H    0.329581  -0.004402
     8  H    0.329581  -0.004402
     9  H    0.329581  -0.004402
    10  H    0.329581  -0.004402
    11  F    0.005244   0.072777
    12  F    0.005244   0.072777
 Sum of Mulliken charges =   1.00000   1.00000

 Dipole moment (field-independent basis, Debye):
    X=              0.0000    Y=              0.0000    Z=              0.0000  Tot=              0.0000
 Quadrupole moment (field-independent basis, Debye-Ang):
   XX=            -26.6761   YY=            -34.5806   ZZ=            -42.7179
   XY=              0.0000   XZ=             -0.0000   YZ=              0.0000

  Exact polarizability:  65.897   0.000  87.989  -0.000   0.000  32.102
 Approx polarizability:  95.156   0.000 151.803   0.000   0.000  46.159

                      1                      2                      3
                      A                      A                      A
 Frequencies --    126.8333               295.1298               365.2816
 Red. masses --     10.5140                 5.7700                 3.1641
 Frc consts  --      0.0997                 0.2961                 0.2487
 IR Inten    --      5.7132                 0.0000                 0.0000

                      4                      5                      6
                      A                      A                      A
 Frequencies --    372.2407               432.6463               448.5664
 Red. masses --     11.5718                 5.0958                12.8924
 Frc consts  --      0.9447                 0.5620                 1.5284
 IR Inten    --     14.4654                 0.0000                 0.0000

                      7                      8                      9
                      A                      A                      A
 Frequencies --    521.1151               592.4189               698.7910
 Red. masses --      2.3155                 6.9290                 7.8632
 Frc consts  --      0.3705                 1.4328                 2.2623
 IR Inten    --     10.8991                 0.0000                 0.0000

                     10                     11                     12
                      A                      A                      A
 Frequencies --    754.1489               776.2307               859.4089
 Red. masses --      5.3195                 1.2350                 7.0642
 Frc consts  --      1.7825                 0.4384                 3.0741
 IR Inten    --     21.6305                 0.0000                 0.0000

                     13                     14                     15
                      A                      A                      A
 Frequencies --    878.0650               975.3714               986.7642
 Red. masses --      1.7262                 1.1984                 2.7050
 Frc consts  --      0.7841                 0.6717                 1.5518
 IR Inten    --     99.9809                 0.0000                23.2062

                     16                     17                     18
                      A                      A                      A
 Frequencies --    995.4994              1127.7628              1169.7989
 Red. masses --      1.3166                 1.1908                 1.0906
 Frc consts  --      0.7688                 0.8923                 0.8793
 IR Inten    --      0.0000                10.9608                 0.0000

                     19                     20                     21
                      A                      A                      A
 Frequencies --   1275.4283              1320.9198              1383.2517
 Red. masses --      1.6125                 2.4495                 6.3015
 Frc consts  --      1.5455                 2.5181                 7.1039
 IR Inten    --      0.0000               119.3509                35.4605

                     22                     23                     24
                      A                      A                      A
 Frequencies --   1424.4190              1446.4206              1520.5886
 Red. masses --     10.8777                 3.4213                 3.3346
 Frc consts  --     13.0036                 4.2172                 4.5428
 IR Inten    --      0.0000                 0.0000               728.7421

                     25                     26                     27
                      A                      A                      A
 Frequencies --   1539.8661              1711.8570              3224.9689
 Red. masses --      5.3251                 6.6307                 1.0916
 Frc consts  --      7.4395                11.4484                 6.6893
 IR Inten    --     20.1637                 0.0000                12.7409

                     28                     29                     30
                      A                      A                      A
 Frequencies --   3226.1760              3235.6761              3236.6082
 Red. masses --      1.0913                 1.0999                 1.1010
 Frc consts  --      6.6924                 6.7847                 6.7951
 IR Inten    --      0.0000                75.8505                 0.0000

 - Thermochemistry -
 -------------------
 Temperature   298.150 Kelvin.  Pressure   1.00000 Atm.
 Atom     1 has atomic number  6 and mass  12.00000

 Molecular mass:   114.02811 amu.
 Principal axes and moments of inertia in atomic units:
                           1         2         3
     Eigenvalues --   335.854511207.338811543.19331
           X           -0.00000   1.00000  -0.00000
           Y            1.00000   0.00000   0.00000
           Z           -0.00000   0.00000   1.00000
 This molecule is an asymmetric top.
 Rotational symmetry number  4.
 Rotational temperatures (Kelvin)      0.25789     0.07174     0.05613
 Rotational constants (GHZ):           5.37358     1.49481     1.16948
 Zero-point vibrational energy     220844.1 (Joules/Mol)
                                   52.78301 (Kcal/Mol)
 Warning -- explicit consideration of   8 degrees of freedom as
           vibrations may cause significant error
 Vibrational temperatures:    182.48   424.63   525.56   535.57   622.48
          (Kelvin)            645.39   749.77   852.36  1005.40  1085.05
                             1116.82  1236.50  1263.34  1403.34  1419.73
                             1432.30  1622.60  1683.08  1835.06  1900.51
                             1990.19  2049.42  2081.08  2187.79  2215.52
                             2462.98  4640.01  4641.75  4655.42  4656.76

 Zero-point correction=                           0.084115 (Hartree/Particle)
 Thermal correction to Energy=                    0.090283
 Thermal correction to Enthalpy=                  0.091227
 Thermal correction to Gibbs Free Energy=         0.054348
 Sum of electronic and zero-point Energies=           -429.962501
 Sum of electronic and thermal Energies=              -429.956333
 Sum of electronic and thermal Enthalpies=            -429.955389
 Sum of electronic and thermal Free Energies=         -429.992268

                     E (Thermal)             CV                S
                      KCal/Mol        Cal/Mol-Kelvin    Cal/Mol-Kelvin
 Total                   56.653             23.428             77.618
 Electronic               0.000              0.000              1.377
 Translational            0.889              2.981             40.109
 Rotational               0.889              2.981             25.173
 Vibrational             54.876             17.466             10.959
 Vibration     1          0.611              1.926              2.994
 Vibration     2          0.689              1.683              1.444
 Vibration     3          0.739              1.544              1.100
 Vibration     4          0.744              1.529              1.071
 Vibration     5          0.794              1.399              0.850
 Vibration     6          0.808              1.364              0.800
 Vibration     7          0.876              1.203              0.607
 Vibration     8          0.950              1.048              0.463

 Optimization completed.
    -- Stationary point found.
 Normal termination of Gaussian 16 at Wed Jan 29 15:55:06 2025.
