 Gaussian 16, Revision A.03,
 Gaussian 16:  ES64L-G16RevA.03 25-Dec-2016

 -----------------------------------------------
 #p PBE1PBE/6-311++G(d,p) density=current nosymm
 -----------------------------------------------

 ----------
 1 4-DFB SP
 ----------
 Symbolic Z-matrix:
 Charge =  0 Multiplicity = 1

                          Input orientation:
 ---------------------------------------------------------------------
 Center     Atomic      Atomic             Coordinates (Angstroms)
 Number     Number       Type             X           Y           Z
 ---------------------------------------------------------------------
      1          6           0        1.211215    0.694971    0.000000
      2          6           0        1.211215   -0.694971   -0.000000
      3          6           0        0.000000   -1.363514    0.000000
      4          6           0       -1.211215   -0.694971   -0.000000
      5          6           0       -1.211215    0.694971    0.000000
      6          6           0        0.000000    1.363514    0.000000
      7          1           0        2.137078    1.257947    0.000000
      8          1           0        2.137078   -1.257947   -0.000000
      9          1           0       -2.137078   -1.257947    0.000000
     10          1           0       -2.137078    1.257947    0.000000
     11          9           0        0.000000   -2.707327    0.000000
     12          9           0        0.000000    2.707327   -0.000000
 ---------------------------------------------------------------------

 SCF Done:  E(RPBE1PBE) =  -430.377199489     A.U. after   11 cycles

 Alpha  occ. eigenvalues --  -24.78896 -24.78896 -10.32303 -10.32302 -10.25321
 Alpha  occ. eigenvalues --  -10.25319 -10.25259 -10.25259  -1.27289  -1.27278
 Alpha  occ. eigenvalues --   -0.91457  -0.80705  -0.78928  -0.67612  -0.65441
 Alpha  occ. eigenvalues --   -0.58621  -0.56936  -0.54884  -0.50317  -0.49327
 Alpha  occ. eigenvalues --   -0.48482  -0.46873  -0.46377  -0.44841  -0.40977
 Alpha  occ. eigenvalues --   -0.38660  -0.37697  -0.29562  -0.26680
 Alpha virt. eigenvalues --   -0.03492  -0.01047   0.00333   0.01396   0.02274
 Alpha virt. eigenvalues --    0.03811   0.04243   0.06600   0.07950   0.08001
 Alpha virt. eigenvalues --    0.09063   0.09153   0.10947   0.11265   0.12340

 Mulliken charges:
               1
     1  C    0.143644
     2  C    0.143644
     3  C   -0.630164
     4  C    0.143644
     5  C    0.143644
     6  C   -0.630164
     7  H    0.248648
     8  H    0.248648
     9  H    0.248648
    10  H    0.248648
    11  F   -0.154419
    12  F   -0.154419
 Sum of Mulliken charges =  -0.00000

 Dipole moment (field-independent basis, Debye):
    X=              0.0000    Y=              0.0000    Z=              0.0000  Tot=              0.0000
 Quadrupole moment (field-independent basis, Debye-Ang):
   XX=            -36.6171   YY=            -52.4805   ZZ=            -46.8705
   XY=             -0.0000   XZ=             -0.0000   YZ=              0.0000

 Normal termination of Gaussian 16 at Fri Jan 17 12:48:44 2025.
