 Gaussian 16, Revision A.03,
 Gaussian 16:  ES64L-G16RevA.03 25-Dec-2016

 --------------------------------------------------------
 #p opt freq PBE1PBE/6-311++G(d,p) density=current nosymm
 --------------------------------------------------------

 ---------------
 1 2 3 4 TtFB SP
 ---------------
 Symbolic Z-matrix:
 Charge = -1 Multiplicity = 2

 SCF Done:  E(UPBE1PBE) =  -628.697282538     A.U. after   25 cycles
 SCF Done:  E(UPBE1PBE) =  -628.697468417     A.U. after   29 cycles
 SCF Done:  E(UPBE1PBE) =  -628.697486592     A.U. after   32 cycles
 Optimization completed.
    -- Stationary point found.
 Normal termination of Gaussian 16 at Thu Jan 30 14:30:59 2025.

 ----------------------------------------------------------------------
 #P Geom=AllCheck Guess=TCheck SCRF=Check GenChk UPBE1PBE/6-311++G(d,p)
  Freq
 ----------------------------------------------------------------------

 Structure from the checkpoint file:  "1-2-3-5-TtFB-ANI.chk"
 ---------------
 1 2 3 4 TtFB SP
 ---------------
 Charge = -1 Multiplicity = 2

                          Input orientation:
 ---------------------------------------------------------------------
 Center     Atomic      Atomic             Coordinates (Angstroms)
 Number     Number       Type             X           Y           Z
 ---------------------------------------------------------------------
      1          6           0        1.174069    0.677854   -0.000000
      2          6           0        1.216856   -0.706570    0.000000
      3          6           0        0.005476   -1.373501    0.000000
      4          6           0       -1.201989   -0.693975   -0.000000
      5          6           0       -1.186734    0.691494   -0.000000
      6          6           0       -0.003475    1.407152   -0.000000
      7          1           0        2.151518   -1.246820    0.000000
      8          1           0       -0.004036    2.486731   -0.000000
      9          9           0       -0.023158   -2.710364   -0.000000
     10          9           0       -2.359510   -1.362243    0.000000
     11          9           0       -2.358838    1.335067    0.000000
     12          9           0        2.332757    1.346758    0.000000
 ---------------------------------------------------------------------

 SCF Done:  E(UPBE1PBE) =  -628.697486592     A.U. after    5 cycles

 Alpha  occ. eigenvalues --  -24.70250 -24.69846 -24.69845 -24.68527 -10.23508
 Alpha  occ. eigenvalues --  -10.23506 -10.22886 -10.22681 -10.14535 -10.14534
 Alpha  occ. eigenvalues --   -1.19429  -1.18299  -1.17467  -1.17090  -0.82025
 Alpha  occ. eigenvalues --   -0.70474  -0.69713  -0.58512  -0.57143  -0.51115
 Alpha  occ. eigenvalues --   -0.48947  -0.48515  -0.44392  -0.43315  -0.43197
 Alpha  occ. eigenvalues --   -0.39952  -0.39510  -0.39394  -0.38250  -0.37007
 Alpha  occ. eigenvalues --   -0.35522  -0.32660  -0.30238  -0.29611  -0.27198
 Alpha  occ. eigenvalues --   -0.17883  -0.16503   0.05139
 Alpha virt. eigenvalues --    0.07792   0.08005   0.09233   0.09383   0.13047
 Alpha virt. eigenvalues --    0.13480   0.14611   0.15452   0.17498   0.18107
 Alpha virt. eigenvalues --    0.18279   0.18767   0.20185   0.21105   0.21644

  Beta  occ. eigenvalues --  -24.70240 -24.69832 -24.69830 -24.68521 -10.23504
  Beta  occ. eigenvalues --  -10.23502 -10.22885 -10.22671 -10.14509 -10.14508
  Beta  occ. eigenvalues --   -1.19394  -1.18255  -1.17430  -1.17070  -0.81979
  Beta  occ. eigenvalues --   -0.70437  -0.69668  -0.58464  -0.57120  -0.51073
  Beta  occ. eigenvalues --   -0.48919  -0.48470  -0.44361  -0.43278  -0.43147
  Beta  occ. eigenvalues --   -0.39913  -0.39406  -0.39359  -0.38227  -0.36938
  Beta  occ. eigenvalues --   -0.35493  -0.32621  -0.30199  -0.29586  -0.27148
  Beta  occ. eigenvalues --   -0.17829  -0.16456
  Beta virt. eigenvalues --    0.08074   0.09098   0.09306   0.10526   0.10674
  Beta virt. eigenvalues --    0.13932   0.14566   0.15360   0.16441   0.18368
  Beta virt. eigenvalues --    0.18601   0.18805   0.19634   0.20652   0.22124

 Mulliken charges and spin densities:
               1          2
     1  C    9.066782  -9.788869
     2  C   -5.974325   6.608119
     3  C    5.892944  -6.216014
     4  C   -4.926072   5.081082
     5  C    5.895067  -6.218207
     6  C   -5.971426   6.605424
     7  H   -2.143642   2.451832
     8  H   -2.145809   2.454090
     9  F   -0.175073   0.012628
    10  F   -0.162547  -0.048071
    11  F   -0.175021   0.012610
    12  F   -0.180878   0.045375
 Sum of Mulliken charges =  -1.00000   1.00000

 Dipole moment (field-independent basis, Debye):
    X=             -4.0248    Y=             -2.3320    Z=             -0.0000  Tot=              4.6516
 Quadrupole moment (field-independent basis, Debye-Ang):
   XX=           -100.6671   YY=           -106.9764   ZZ=            -74.4047
   XY=              5.4376   XZ=             -0.0000   YZ=              0.0000

  Exact polarizability:1502.100********2809.422   0.004  -0.011 289.150
 Approx polarizability:1345.762********2546.509   0.001  -0.001 234.789

 ******    1 imaginary frequencies (negative Signs) ******

                      1                      2                      3
                      A                      A                      A
 Frequencies --    -98.8444               197.8887               237.1242
 Red. masses --     15.0356                12.6853                10.7331
 Frc consts  --      0.0866                 0.2927                 0.3556
 IR Inten    --    272.5083               202.2663                61.4489

                      4                      5                      6
                      A                      A                      A
 Frequencies --    274.7984               283.6609               304.3082
 Red. masses --     18.4444                 4.5169                16.6716
 Frc consts  --      0.8206                 0.2141                 0.9096
 IR Inten    --     56.2666                 0.8305                12.6308

                      7                      8                      9
                      A                      A                      A
 Frequencies --    333.5570               396.5350               450.3995
 Red. masses --     15.4188                 9.6514                14.1694
 Frc consts  --      1.0107                 0.8941                 1.6936
 IR Inten    --    123.6388                 1.6993                13.6421

                     10                     11                     12
                      A                      A                      A
 Frequencies --    506.2790               577.3397               645.3983
 Red. masses --      7.4803                17.3252                 5.4270
 Frc consts  --      1.1297                 3.4024                 1.3319
 IR Inten    --    624.0274               101.1861                95.6531

                     13                     14                     15
                      A                      A                      A
 Frequencies --    735.3647               755.9568               798.9120
 Red. masses --      1.5801                 1.8019                 6.0622
 Frc consts  --      0.5034                 0.6067                 2.2797
 IR Inten    --    772.6850                14.6814                57.4485

                     16                     17                     18
                      A                      A                      A
 Frequencies --   1017.9020              1031.4023              1066.3978
 Red. masses --      3.1083                 2.8030                 8.8833
 Frc consts  --      1.8975                 1.7569                 5.9520
 IR Inten    --     14.5936              4596.7946               255.1135

                     19                     20                     21
                      A                      A                      A
 Frequencies --   1069.1717              1160.0336              1212.5396
 Red. masses --      2.8901                 2.2354                 1.3695
 Frc consts  --      1.9465                 1.7724                 1.1864
 IR Inten    --      0.0211               174.8299                18.3292

                     22                     23                     24
                      A                      A                      A
 Frequencies --   1257.3855              1369.6031              1397.2694
 Red. masses --      4.7639                10.7366                10.2911
 Frc consts  --      4.4376                11.8660                11.8378
 IR Inten    --    442.7813                 6.0199               670.5169

                     25                     26                     27
                      A                      A                      A
 Frequencies --   1496.4318              1546.3630              1688.2479
 Red. masses --      6.7737                 5.8333                 9.8133
 Frc consts  --      8.9369                 8.2184                16.4792
 IR Inten    --    509.9710               267.8324               403.6872

                     28                     29                     30
                      A                      A                      A
 Frequencies --   1692.1270              3257.0624              3270.3532
 Red. masses --      9.7883                 1.0961                 1.0945
 Frc consts  --     16.5129                 6.8508                 6.8967
 IR Inten    --    358.9970              1058.6663               136.8201

 - Thermochemistry -
 -------------------
 Temperature   298.150 Kelvin.  Pressure   1.00000 Atm.
 Atom     1 has atomic number  6 and mass  12.00000

 Molecular mass:   150.00926 amu.
 Principal axes and moments of inertia in atomic units:
                           1         2         3
     Eigenvalues --  1023.118831446.597802469.71664
           X            0.86604  -0.49997   0.00000
           Y            0.49997   0.86604  -0.00000
           Z            0.00000   0.00000   1.00000
 This molecule is an asymmetric top.
 Rotational symmetry number  1.
 Warning -- assumption of classical behavior for rotation
           may cause significant error
 Rotational temperatures (Kelvin)      0.08466     0.05987     0.03507
 Rotational constants (GHZ):           1.76396     1.24758     0.73075
    1 imaginary frequencies ignored.
 Zero-point vibrational energy     179618.2 (Joules/Mol)
                                   42.92977 (Kcal/Mol)
 Warning -- explicit consideration of  10 degrees of freedom as
           vibrations may cause significant error
 Vibrational temperatures:    284.72   341.17   395.37   408.12   437.83
          (Kelvin)            479.91   570.53   648.02   728.42   830.66
                              928.58  1058.03  1087.65  1149.46  1464.53
                             1483.96  1534.31  1538.30  1669.03  1744.57
                             1809.10  1970.55  2010.36  2153.03  2224.87
                             2429.01  2434.59  4686.19  4705.31

 Zero-point correction=                           0.068413 (Hartree/Particle)
 Thermal correction to Energy=                    0.075580
 Thermal correction to Enthalpy=                  0.076524
 Thermal correction to Gibbs Free Energy=         0.035577
 Sum of electronic and zero-point Energies=           -628.629074
 Sum of electronic and thermal Energies=              -628.621907
 Sum of electronic and thermal Enthalpies=            -628.620963
 Sum of electronic and thermal Free Energies=         -628.661910

                     E (Thermal)             CV                S
                      KCal/Mol        Cal/Mol-Kelvin    Cal/Mol-Kelvin
 Total                   47.427             26.878             86.181
 Electronic               0.000              0.000              1.377
 Translational            0.889              2.981             40.927
 Rotational               0.889              2.981             29.681
 Vibrational             45.650             20.916             14.195
 Vibration     1          0.637              1.843              2.153
 Vibration     2          0.656              1.784              1.824
 Vibration     3          0.677              1.720              1.566
 Vibration     4          0.682              1.704              1.511
 Vibration     5          0.695              1.666              1.393
 Vibration     6          0.715              1.608              1.243
 Vibration     7          0.763              1.478              0.975
 Vibration     8          0.809              1.360              0.795
 Vibration     9          0.862              1.236              0.643
 Vibration    10          0.934              1.080              0.490

 Optimization completed.
    -- Stationary point found.
 Normal termination of Gaussian 16 at Thu Jan 30 14:40:39 2025.
