 Gaussian 16, Revision A.03,
 Gaussian 16:  ES64L-G16RevA.03 25-Dec-2016

 -----------------------------------------------
 #p PBE1PBE/6-311++G(d,p) density=current nosymm
 -----------------------------------------------

 ---------------
 1 2 3 4 TtFB SP
 ---------------
 Symbolic Z-matrix:
 Charge =  0 Multiplicity = 1

                          Input orientation:
 ---------------------------------------------------------------------
 Center     Atomic      Atomic             Coordinates (Angstroms)
 Number     Number       Type             X           Y           Z
 ---------------------------------------------------------------------
      1          6           0        1.176739    0.679446    0.000000
      2          6           0        1.211772   -0.703336    0.000000
      3          6           0        0.003052   -1.375883   -0.000000
      4          6           0       -1.207017   -0.696952    0.000000
      5          6           0       -1.189791    0.690519    0.000000
      6          6           0       -0.003172    1.401286    0.000000
      7          1           0        2.147548   -1.247104    0.000000
      8          1           0       -0.006493    2.483559   -0.000000
      9          9           0       -0.016345   -2.705663    0.000000
     10          9           0       -2.357104   -1.360468   -0.000000
     11          9           0       -2.351310    1.338271    0.000000
     12          9           0        2.335055    1.347908   -0.000000
 ---------------------------------------------------------------------

 SCF Done:  E(RPBE1PBE) =  -628.719232096     A.U. after   13 cycles

 Alpha  occ. eigenvalues --  -24.81592 -24.81590 -24.81485 -24.80836 -10.35408
 Alpha  occ. eigenvalues --  -10.35406 -10.34955 -10.34503 -10.26698 -10.26696
 Alpha  occ. eigenvalues --   -1.31180  -1.30274  -1.29418  -1.29211  -0.93972
 Alpha  occ. eigenvalues --   -0.82427  -0.81647  -0.70409  -0.69101  -0.62981
 Alpha  occ. eigenvalues --   -0.60916  -0.60172  -0.56353  -0.55519  -0.54920
 Alpha  occ. eigenvalues --   -0.51773  -0.51570  -0.51479  -0.49814  -0.48871
 Alpha  occ. eigenvalues --   -0.47242  -0.44423  -0.42309  -0.41223  -0.39075
 Alpha  occ. eigenvalues --   -0.29799  -0.28329
 Alpha virt. eigenvalues --   -0.03848  -0.02604  -0.00874   0.00873   0.01833
 Alpha virt. eigenvalues --    0.04068   0.05302   0.05441   0.07446   0.07861
 Alpha virt. eigenvalues --    0.09127   0.09170   0.10377   0.11589   0.12360

 Mulliken charges:
               1
     1  C   -0.703545
     2  C    0.626193
     3  C   -0.323149
     4  C    0.182422
     5  C   -0.323177
     6  C    0.626221
     7  H    0.278080
     8  H    0.278083
     9  F   -0.153140
    10  F   -0.189437
    11  F   -0.153093
    12  F   -0.145459
 Sum of Mulliken charges =  -0.00000

 Dipole moment (field-independent basis, Debye):
    X=              1.2756    Y=              0.7368    Z=              0.0000  Tot=              1.4731
 Quadrupole moment (field-independent basis, Debye-Ang):
   XX=            -58.9001   YY=            -55.0023   ZZ=            -53.7176
   XY=             -3.3707   XZ=              0.0000   YZ=             -0.0000

 Normal termination of Gaussian 16 at Tue Jan 14 14:12:37 2025.
