 Gaussian 16, Revision A.03,
 Gaussian 16:  ES64L-G16RevA.03 25-Dec-2016

 --------------------------------------------------------
 #p opt freq PBE1PBE/6-311++G(d,p) density=current nosymm
 --------------------------------------------------------

 ---------------
 1 2 3 4 TtFB SP
 ---------------
 Symbolic Z-matrix:
 Charge =  1 Multiplicity = 2

 SCF Done:  E(UPBE1PBE) =  -628.362314216     A.U. after   21 cycles
 SCF Done:  E(UPBE1PBE) =  -628.373432760     A.U. after   16 cycles
 SCF Done:  E(UPBE1PBE) =  -628.374202160     A.U. after   14 cycles
 SCF Done:  E(UPBE1PBE) =  -628.374219971     A.U. after   12 cycles
 SCF Done:  E(UPBE1PBE) =  -628.374221320     A.U. after   12 cycles
 Optimization completed.
    -- Stationary point found.
 Normal termination of Gaussian 16 at Thu Jan 30 14:30:09 2025.

 ----------------------------------------------------------------------
 #P Geom=AllCheck Guess=TCheck SCRF=Check GenChk UPBE1PBE/6-311++G(d,p)
  Freq
 ----------------------------------------------------------------------

 Structure from the checkpoint file:  "1-2-3-5-TtFB-CAT.chk"
 ---------------
 1 2 3 4 TtFB SP
 ---------------
 Charge =  1 Multiplicity = 2

                          Input orientation:
 ---------------------------------------------------------------------
 Center     Atomic      Atomic             Coordinates (Angstroms)
 Number     Number       Type             X           Y           Z
 ---------------------------------------------------------------------
      1          6           0        1.161319    0.670509    0.000000
      2          6           0        1.222628   -0.741113   -0.000000
      3          6           0        0.039975   -1.414243   -0.000000
      4          6           0       -1.198294   -0.691857    0.000000
      5          6           0       -1.204754    0.741739   -0.000000
      6          6           0       -0.030498    1.429419   -0.000000
      7          1           0        2.177694   -1.255213    0.000000
      8          1           0        0.001787    2.513583    0.000000
      9          9           0       -0.035380   -2.709495    0.000000
     10          9           0       -2.306985   -1.331914   -0.000000
     11          9           0       -2.364168    1.324060    0.000000
     12          9           0        2.279610    1.316107   -0.000000
 ---------------------------------------------------------------------

 SCF Done:  E(UPBE1PBE) =  -628.374221320     A.U. after    1 cycles

 Alpha  occ. eigenvalues --  -25.05643 -25.03731 -25.02168 -25.02167 -10.60861
 Alpha  occ. eigenvalues --  -10.60019 -10.58055 -10.58053 -10.48437 -10.48436
 Alpha  occ. eigenvalues --   -1.55862  -1.53584  -1.51800  -1.51520  -1.15998
 Alpha  occ. eigenvalues --   -1.04663  -1.03583  -0.92168  -0.91421  -0.84332
 Alpha  occ. eigenvalues --   -0.83342  -0.83107  -0.78583  -0.78328  -0.77089
 Alpha  occ. eigenvalues --   -0.75317  -0.72641  -0.72164  -0.72081  -0.70698
 Alpha  occ. eigenvalues --   -0.68663  -0.65186  -0.63323  -0.61731  -0.60488
 Alpha  occ. eigenvalues --   -0.51239  -0.51000
 Alpha virt. eigenvalues --   -0.26861  -0.24475  -0.18315  -0.13229  -0.11302
 Alpha virt. eigenvalues --   -0.10610  -0.10595  -0.09664  -0.08497  -0.08322
 Alpha virt. eigenvalues --   -0.06196  -0.04742  -0.04351  -0.03439  -0.02211

  Beta  occ. eigenvalues --  -25.05227 -25.03420 -25.02106 -25.02105 -10.60096
  Beta  occ. eigenvalues --  -10.59540 -10.58034 -10.58033 -10.48399 -10.48398
  Beta  occ. eigenvalues --   -1.55016  -1.52921  -1.51673  -1.51336  -1.15033
  Beta  occ. eigenvalues --   -1.04481  -1.01778  -0.91654  -0.90795  -0.84089
  Beta  occ. eigenvalues --   -0.83056  -0.82713  -0.78206  -0.76710  -0.75938
  Beta  occ. eigenvalues --   -0.72882  -0.72206  -0.72031  -0.70814  -0.70482
  Beta  occ. eigenvalues --   -0.68487  -0.64915  -0.63014  -0.61445  -0.57861
  Beta  occ. eigenvalues --   -0.50789
  Beta virt. eigenvalues --   -0.40608  -0.23075  -0.22768  -0.17787  -0.13070
  Beta virt. eigenvalues --   -0.11008  -0.10592  -0.09714  -0.09632  -0.08036
  Beta virt. eigenvalues --   -0.06890  -0.06050  -0.04688  -0.03999  -0.02986

 Mulliken charges and spin densities:
               1          2
     1  C   -0.538512   0.369747
     2  C    0.669602  -0.041682
     3  C   -0.326273   0.074043
     4  C    0.307496   0.395191
     5  C   -0.326230   0.074149
     6  C    0.669597  -0.041798
     7  H    0.351439  -0.004190
     8  H    0.351437  -0.004184
     9  F   -0.063861   0.012786
    10  F   -0.031491   0.091324
    11  F   -0.063841   0.012800
    12  F    0.000636   0.061812
 Sum of Mulliken charges =   1.00000   1.00000

 Dipole moment (field-independent basis, Debye):
    X=              0.6809    Y=              0.3933    Z=              0.0000  Tot=              0.7864
 Quadrupole moment (field-independent basis, Debye-Ang):
   XX=            -42.6428   YY=            -41.5786   ZZ=            -49.8575
   XY=             -0.9220   XZ=              0.0000   YZ=              0.0000

  Exact polarizability:  86.551   8.014  77.293   0.000   0.000  32.255
 Approx polarizability: 146.034  22.914 119.565   0.000   0.000  46.200

                      1                      2                      3
                      A                      A                      A
 Frequencies --    114.2868               188.4458               223.4677
 Red. masses --     16.8007                12.7746                 5.0811
 Frc consts  --      0.1293                 0.2673                 0.1495
 IR Inten    --      0.2997                 6.5796                 0.0000

                      4                      5                      6
                      A                      A                      A
 Frequencies --    273.4213               307.5618               355.1013
 Red. masses --     17.0399                16.7657                 6.0166
 Frc consts  --      0.7506                 0.9344                 0.4470
 IR Inten    --      1.7964                 5.5756                 0.1667

                      7                      8                      9
                      A                      A                      A
 Frequencies --    356.9407               433.5818               436.8924
 Red. masses --     15.4157                 9.0315                13.4780
 Frc consts  --      1.1572                 1.0003                 1.5157
 IR Inten    --      6.4867                28.9988                 1.0470

                     10                     11                     12
                      A                      A                      A
 Frequencies --    538.4738               592.5135               647.3787
 Red. masses --      4.6016                16.8154                 5.0551
 Frc consts  --      0.7861                 3.4782                 1.2482
 IR Inten    --      0.0000                 0.2225                 1.1223

                     13                     14                     15
                      A                      A                      A
 Frequencies --    649.6294               671.4424               794.7159
 Red. masses --      4.7031                10.0403                 5.7497
 Frc consts  --      1.1694                 2.6669                 2.1395
 IR Inten    --      1.6403                 0.3828                17.7553

                     16                     17                     18
                      A                      A                      A
 Frequencies --    868.3247               874.1732               997.8920
 Red. masses --      1.4164                 1.3676                 2.4540
 Frc consts  --      0.6292                 0.6157                 1.4398
 IR Inten    --      0.0065                82.2376                 0.6957

                     19                     20                     21
                      A                      A                      A
 Frequencies --   1099.5840              1223.9604              1226.2541
 Red. masses --      4.4413                 2.3966                 1.7028
 Frc consts  --      3.1639                 2.1153                 1.5086
 IR Inten    --     47.2930               119.9344                91.8810

                     22                     23                     24
                      A                      A                      A
 Frequencies --   1346.0132              1394.8545              1419.0536
 Red. masses --      6.0215                 7.2356                10.4552
 Frc consts  --      6.4277                 8.2943                12.4045
 IR Inten    --      9.2595               160.9872                 5.2718

                     25                     26                     27
                      A                      A                      A
 Frequencies --   1495.8958              1548.6546              1591.6727
 Red. masses --      6.9466                11.6422                 7.7029
 Frc consts  --      9.1586                16.4511                11.4977
 IR Inten    --    390.7620               455.9191               253.1296

                     28                     29                     30
                      A                      A                      A
 Frequencies --   1729.7303              3232.0153              3232.3662
 Red. masses --      8.6764                 1.0960                 1.0967
 Frc consts  --     15.2949                 6.7452                 6.7509
 IR Inten    --    130.7826                66.0922                25.8276

 - Thermochemistry -
 -------------------
 Temperature   298.150 Kelvin.  Pressure   1.00000 Atm.
 Atom     1 has atomic number  6 and mass  12.00000

 Molecular mass:   150.00926 amu.
 Principal axes and moments of inertia in atomic units:
                           1         2         3
     Eigenvalues --  1037.332321400.282822437.61514
           X            0.86603  -0.50000   0.00000
           Y            0.50000   0.86603   0.00000
           Z           -0.00000  -0.00000   1.00000
 This molecule is an asymmetric top.
 Rotational symmetry number  1.
 Warning -- assumption of classical behavior for rotation
           may cause significant error
 Rotational temperatures (Kelvin)      0.08350     0.06185     0.03553
 Rotational constants (GHZ):           1.73979     1.28884     0.74037
 Zero-point vibrational energy     178628.2 (Joules/Mol)
                                   42.69316 (Kcal/Mol)
 Warning -- explicit consideration of  11 degrees of freedom as
           vibrations may cause significant error
 Vibrational temperatures:    164.43   271.13   321.52   393.39   442.51
          (Kelvin)            510.91   513.56   623.83   628.59   774.74
                              852.49   931.43   934.67   966.06  1143.42
                             1249.33  1257.74  1435.74  1582.06  1761.01
                             1764.31  1936.61  2006.88  2041.70  2152.26
                             2228.17  2290.06  2488.70  4650.15  4650.65

 Zero-point correction=                           0.068036 (Hartree/Particle)
 Thermal correction to Energy=                    0.075895
 Thermal correction to Enthalpy=                  0.076839
 Thermal correction to Gibbs Free Energy=         0.034456
 Sum of electronic and zero-point Energies=           -628.306185
 Sum of electronic and thermal Energies=              -628.298327
 Sum of electronic and thermal Enthalpies=            -628.297382
 Sum of electronic and thermal Free Energies=         -628.339765

                     E (Thermal)             CV                S
                      KCal/Mol        Cal/Mol-Kelvin    Cal/Mol-Kelvin
 Total                   47.625             29.153             89.202
 Electronic               0.000              0.000              1.377
 Translational            0.889              2.981             40.927
 Rotational               0.889              2.981             29.650
 Vibrational             45.847             23.191             17.248
 Vibration     1          0.607              1.938              3.195
 Vibration     2          0.633              1.856              2.243
 Vibration     3          0.649              1.805              1.931
 Vibration     4          0.676              1.722              1.574
 Vibration     5          0.697              1.659              1.375
 Vibration     6          0.731              1.565              1.143
 Vibration     7          0.732              1.561              1.135
 Vibration     8          0.794              1.397              0.847
 Vibration     9          0.797              1.390              0.836
 Vibration    10          0.894              1.165              0.569
 Vibration    11          0.950              1.048              0.463

 Optimization completed.
    -- Stationary point found.
 Normal termination of Gaussian 16 at Thu Jan 30 14:38:14 2025.
