 Gaussian 16, Revision A.03,
 Gaussian 16:  ES64L-G16RevA.03 25-Dec-2016

 --------------------------------------------------------
 #p opt freq PBE1PBE/6-311++G(d,p) density=current nosymm
 --------------------------------------------------------

 ---------------
 1 2 4 5 TtFB SP
 ---------------
 Symbolic Z-matrix:
 Charge =  1 Multiplicity = 2

 SCF Done:  E(UPBE1PBE) =  -628.367972509     A.U. after   14 cycles
 SCF Done:  E(UPBE1PBE) =  -628.379287111     A.U. after   13 cycles
 SCF Done:  E(UPBE1PBE) =  -628.380163545     A.U. after   12 cycles
 SCF Done:  E(UPBE1PBE) =  -628.380178170     A.U. after    9 cycles
 Optimization completed.
    -- Stationary point found.
 Normal termination of Gaussian 16 at Thu Jan 30 13:08:07 2025.

 ----------------------------------------------------------------------
 #P Geom=AllCheck Guess=TCheck SCRF=Check GenChk UPBE1PBE/6-311++G(d,p)
  Freq
 ----------------------------------------------------------------------

 Structure from the checkpoint file:  "1-2-4-5-TtFB-CAT.chk"
 ---------------
 1 2 4 5 TtFB SP
 ---------------
 Charge =  1 Multiplicity = 2

                          Input orientation:
 ---------------------------------------------------------------------
 Center     Atomic      Atomic             Coordinates (Angstroms)
 Number     Number       Type             X           Y           Z
 ---------------------------------------------------------------------
      1          6           0        1.214234    0.655872   -0.000000
      2          6           0        1.252081   -0.722891    0.000000
      3          6           0        0.039127   -1.379504    0.000000
      4          6           0       -1.214234   -0.655872   -0.000000
      5          6           0       -1.252081    0.722891    0.000000
      6          6           0       -0.039127    1.379504    0.000000
      7          1           0        2.191325   -1.265139   -0.000000
      8          1           0       -2.191325    1.265139   -0.000000
      9          9           0       -0.029081   -2.668029    0.000000
     10          9           0       -2.296040   -1.359181   -0.000000
     11          9           0        0.029081    2.668029   -0.000000
     12          9           0        2.296040    1.359181   -0.000000
 ---------------------------------------------------------------------

 SCF Done:  E(UPBE1PBE) =  -628.380178170     A.U. after    1 cycles

 Alpha  occ. eigenvalues --  -25.03487 -25.03487 -25.03486 -25.03486 -10.59339
 Alpha  occ. eigenvalues --  -10.59338 -10.59296 -10.59296 -10.48040 -10.48039
 Alpha  occ. eigenvalues --   -1.54148  -1.54087  -1.52510  -1.52471  -1.15938
 Alpha  occ. eigenvalues --   -1.05004  -1.02895  -0.92640  -0.90852  -0.84283
 Alpha  occ. eigenvalues --   -0.83462  -0.83031  -0.79304  -0.77659  -0.75941
 Alpha  occ. eigenvalues --   -0.75820  -0.73188  -0.72550  -0.72025  -0.71038
 Alpha  occ. eigenvalues --   -0.68592  -0.66001  -0.62531  -0.62081  -0.60503
 Alpha  occ. eigenvalues --   -0.51924  -0.49956
 Alpha virt. eigenvalues --   -0.26318  -0.25075  -0.17558  -0.13248  -0.12895
 Alpha virt. eigenvalues --   -0.11354  -0.10074  -0.09276  -0.07583  -0.06845
 Alpha virt. eigenvalues --   -0.06645  -0.04598  -0.03739  -0.03541  -0.03327

  Beta  occ. eigenvalues --  -25.03236 -25.03236 -25.03236 -25.03235 -10.58904
  Beta  occ. eigenvalues --  -10.58904 -10.58866 -10.58865 -10.48226 -10.48225
  Beta  occ. eigenvalues --   -1.53593  -1.53533  -1.51982  -1.51942  -1.15017
  Beta  occ. eigenvalues --   -1.04862  -1.01126  -0.92174  -0.90186  -0.83990
  Beta  occ. eigenvalues --   -0.83157  -0.82763  -0.78802  -0.75721  -0.75447
  Beta  occ. eigenvalues --   -0.73599  -0.71986  -0.71487  -0.70991  -0.70788
  Beta  occ. eigenvalues --   -0.68421  -0.65693  -0.62242  -0.61729  -0.57911
  Beta  occ. eigenvalues --   -0.51487
  Beta virt. eigenvalues --   -0.39923  -0.23623  -0.22066  -0.16971  -0.12909
  Beta virt. eigenvalues --   -0.12784  -0.11316  -0.09092  -0.08088  -0.07407
  Beta virt. eigenvalues --   -0.06793  -0.06389  -0.04311  -0.03461  -0.03405

 Mulliken charges and spin densities:
               1          2
     1  C   -0.211814   0.278598
     2  C    0.642030  -0.163207
     3  C   -0.211859   0.278571
     4  C   -0.211814   0.278598
     5  C    0.642030  -0.163207
     6  C   -0.211859   0.278571
     7  H    0.351222   0.003849
     8  H    0.351222   0.003849
     9  F   -0.034794   0.051093
    10  F   -0.034785   0.051098
    11  F   -0.034794   0.051093
    12  F   -0.034785   0.051098
 Sum of Mulliken charges =   1.00000   1.00000

 Dipole moment (field-independent basis, Debye):
    X=             -0.0000    Y=             -0.0000    Z=              0.0000  Tot=              0.0000
 Quadrupole moment (field-independent basis, Debye-Ang):
   XX=            -39.6333   YY=            -44.2270   ZZ=            -49.8720
   XY=             -3.9780   XZ=             -0.0000   YZ=              0.0000

  Exact polarizability:  76.342   9.180  86.940   0.000  -0.000  32.276
 Approx polarizability: 117.063  27.020 148.260   0.000  -0.000  46.202

                      1                      2                      3
                      A                      A                      A
 Frequencies --    106.2184               181.2808               220.9255
 Red. masses --     18.4577                10.9874                 7.5219
 Frc consts  --      0.1227                 0.2127                 0.2163
 IR Inten    --      0.0000                 7.9099                 0.0000

                      4                      5                      6
                      A                      A                      A
 Frequencies --    287.7019               311.1171               371.7115
 Red. masses --     17.7798                18.2418                13.0923
 Frc consts  --      0.8671                 1.0403                 1.0658
 IR Inten    --      0.0000                 2.9426                 0.0000

                      7                      8                      9
                      A                      A                      A
 Frequencies --    373.2554               443.4786               458.2329
 Red. masses --     14.2775                 3.2232                12.6472
 Frc consts  --      1.1720                 0.3735                 1.5647
 IR Inten    --     10.5453                 0.2018                 0.0000

                     10                     11                     12
                      A                      A                      A
 Frequencies --    490.4078               652.0899               652.7629
 Red. masses --     13.7889                 4.7326                 7.2354
 Frc consts  --      1.9539                 1.1857                 1.8164
 IR Inten    --      0.0000                 0.0000                 0.0000

                     13                     14                     15
                      A                      A                      A
 Frequencies --    704.7527               709.5226               744.2220
 Red. masses --     12.2262                11.3347                 7.9328
 Frc consts  --      3.5778                 3.3619                 2.5887
 IR Inten    --      0.0000                29.7991                 0.0000

                     16                     17                     18
                      A                      A                      A
 Frequencies --    834.6145               871.2697               889.0864
 Red. masses --      1.2171                 2.5028                 1.3693
 Frc consts  --      0.4995                 1.1194                 0.6377
 IR Inten    --      0.0000                17.3581                86.3625

                     19                     20                     21
                      A                      A                      A
 Frequencies --   1184.3426              1237.6471              1253.9027
 Red. masses --      1.4152                 1.8408                 9.3703
 Frc consts  --      1.1696                 1.6613                 8.6803
 IR Inten    --      0.0000               167.7007                 0.0000

                     22                     23                     24
                      A                      A                      A
 Frequencies --   1299.0191              1413.1223              1527.7449
 Red. masses --      9.2531                 9.7958                12.1332
 Frc consts  --      9.1996                11.5252                16.6850
 IR Inten    --     98.8078                30.8688                 0.0000

                     25                     26                     27
                      A                      A                      A
 Frequencies --   1551.0830              1557.0098              1573.3398
 Red. masses --      5.9593                11.2424                 5.8766
 Frc consts  --      8.4473                16.0580                 8.5708
 IR Inten    --   1257.6410                74.0047                 0.0000

                     28                     29                     30
                      A                      A                      A
 Frequencies --   1598.4982              3231.4958              3232.9234
 Red. masses --     10.1799                 1.0962                 1.0965
 Frc consts  --     15.3256                 6.7446                 6.7520
 IR Inten    --      0.0000                99.6352                 0.0000

 - Thermochemistry -
 -------------------
 Temperature   298.150 Kelvin.  Pressure   1.00000 Atm.
 Atom     1 has atomic number  6 and mass  12.00000

 Molecular mass:   150.00926 amu.
 Principal axes and moments of inertia in atomic units:
                           1         2         3
     Eigenvalues --   779.874371703.814622483.68900
           X            0.50000   0.86603  -0.00000
           Y            0.86603  -0.50000   0.00000
           Z           -0.00000   0.00000   1.00000
 This molecule is an asymmetric top.
 Rotational symmetry number  2.
 Warning -- assumption of classical behavior for rotation
           may cause significant error
 Rotational temperatures (Kelvin)      0.11106     0.05084     0.03487
 Rotational constants (GHZ):           2.31414     1.05924     0.72664
 Zero-point vibrational energy     179217.2 (Joules/Mol)
                                   42.83394 (Kcal/Mol)
 Warning -- explicit consideration of  10 degrees of freedom as
           vibrations may cause significant error
 Vibrational temperatures:    152.82   260.82   317.86   413.94   447.63
          (Kelvin)            534.81   537.03   638.07   659.29   705.59
                              938.21   939.18  1013.98  1020.84  1070.77
                             1200.82  1253.56  1279.20  1704.00  1780.70
                             1804.09  1869.00  2033.17  2198.08  2231.66
                             2240.19  2263.69  2299.88  4649.40  4651.46

 Zero-point correction=                           0.068260 (Hartree/Particle)
 Thermal correction to Energy=                    0.076060
 Thermal correction to Enthalpy=                  0.077004
 Thermal correction to Gibbs Free Energy=         0.035365
 Sum of electronic and zero-point Energies=           -628.311918
 Sum of electronic and thermal Energies=              -628.304118
 Sum of electronic and thermal Enthalpies=            -628.303174
 Sum of electronic and thermal Free Energies=         -628.344814

                     E (Thermal)             CV                S
                      KCal/Mol        Cal/Mol-Kelvin    Cal/Mol-Kelvin
 Total                   47.728             28.972             87.637
 Electronic               0.000              0.000              1.377
 Translational            0.889              2.981             40.927
 Rotational               0.889              2.981             28.203
 Vibrational             45.951             23.011             17.131
 Vibration     1          0.605              1.944              3.337
 Vibration     2          0.630              1.865              2.315
 Vibration     3          0.648              1.809              1.951
 Vibration     4          0.685              1.697              1.487
 Vibration     5          0.700              1.653              1.356
 Vibration     6          0.743              1.530              1.073
 Vibration     7          0.745              1.527              1.066
 Vibration     8          0.803              1.375              0.816
 Vibration     9          0.816              1.343              0.771
 Vibration    10          0.846              1.271              0.683

 Optimization completed.
    -- Stationary point found.
 Normal termination of Gaussian 16 at Thu Jan 30 13:15:59 2025.
