 Gaussian 16, Revision A.03,
 Gaussian 16:  ES64L-G16RevA.03 25-Dec-2016

 -----------------------------------------------
 #p PBE1PBE/6-311++G(d,p) density=current nosymm
 -----------------------------------------------

 ---------------
 1 2 4 5 TtFB SP
 ---------------
 Symbolic Z-matrix:
 Charge =  0 Multiplicity = 1

                          Input orientation:
 ---------------------------------------------------------------------
 Center     Atomic      Atomic             Coordinates (Angstroms)
 Number     Number       Type             X           Y           Z
 ---------------------------------------------------------------------
      1          6           0        1.196299    0.684992    0.000000
      2          6           0        1.208630   -0.697851    0.000000
      3          6           0        0.004982   -1.378686   -0.000000
      4          6           0       -1.196299   -0.684992    0.000000
      5          6           0       -1.208630    0.697851    0.000000
      6          6           0       -0.004982    1.378686   -0.000000
      7          1           0        2.146684   -1.239139    0.000000
      8          1           0       -2.146684    1.239139    0.000000
      9          9           0       -0.006825   -2.710864    0.000000
     10          9           0       -2.344201   -1.361074    0.000000
     11          9           0        0.006825    2.710864    0.000000
     12          9           0        2.344201    1.361074    0.000000
 ---------------------------------------------------------------------

 SCF Done:  E(RPBE1PBE) =  -628.718513498     A.U. after   10 cycles

 Alpha  occ. eigenvalues --  -24.81186 -24.81186 -24.81185 -24.81185 -10.34783
 Alpha  occ. eigenvalues --  -10.34781 -10.34722 -10.34721 -10.27346 -10.27344
 Alpha  occ. eigenvalues --   -1.30517  -1.30458  -1.29128  -1.29088  -0.94000
 Alpha  occ. eigenvalues --   -0.82780  -0.81207  -0.70829  -0.68666  -0.62532
 Alpha  occ. eigenvalues --   -0.60808  -0.60742  -0.57445  -0.54441  -0.53456
 Alpha  occ. eigenvalues --   -0.52688  -0.50893  -0.50377  -0.50071  -0.49845
 Alpha  occ. eigenvalues --   -0.47198  -0.44518  -0.41633  -0.41609  -0.39093
 Alpha  occ. eigenvalues --   -0.30436  -0.27715
 Alpha virt. eigenvalues --   -0.04615  -0.01880  -0.00275   0.01414   0.01479
 Alpha virt. eigenvalues --    0.02224   0.05733   0.06240   0.07782   0.08022
 Alpha virt. eigenvalues --    0.08532   0.09598   0.09914   0.11156   0.11847

 Mulliken charges:
               1
     1  C   -0.281970
     2  C    0.611689
     3  C   -0.282413
     4  C   -0.281970
     5  C    0.611689
     6  C   -0.282413
     7  H    0.282308
     8  H    0.282308
     9  F   -0.164830
    10  F   -0.164784
    11  F   -0.164830
    12  F   -0.164784
 Sum of Mulliken charges =  -0.00000

 Dipole moment (field-independent basis, Debye):
    X=             -0.0000    Y=             -0.0000    Z=             -0.0000  Tot=              0.0000
 Quadrupole moment (field-independent basis, Debye-Ang):
   XX=            -53.2488   YY=            -60.8449   ZZ=            -53.6729
   XY=             -6.5779   XZ=             -0.0000   YZ=              0.0000

 Normal termination of Gaussian 16 at Tue Jan 14 14:15:19 2025.
