 Gaussian 16, Revision A.03,
 Gaussian 16:  ES64L-G16RevA.03 25-Dec-2016

 --------------------------------------------------------
 #p opt freq PBE1PBE/6-311++G(d,p) density=current nosymm
 --------------------------------------------------------

 ---------------
 1 2 4 5 TtFB SP
 ---------------
 Symbolic Z-matrix:
 Charge = -1 Multiplicity = 2

 SCF Done:  E(UPBE1PBE) =  -628.696698407     A.U. after   24 cycles
 SCF Done:  E(UPBE1PBE) =  -628.705785176     A.U. after   13 cycles
 SCF Done:  E(UPBE1PBE) =  -628.706571989     A.U. after   12 cycles
 SCF Done:  E(UPBE1PBE) =  -628.706598407     A.U. after    9 cycles
 SCF Done:  E(UPBE1PBE) =  -628.706601402     A.U. after   10 cycles
 Optimization completed.
    -- Stationary point found.
 Normal termination of Gaussian 16 at Thu Jan 30 13:11:38 2025.

 ----------------------------------------------------------------------
 #P Geom=AllCheck Guess=TCheck SCRF=Check GenChk UPBE1PBE/6-311++G(d,p)
  Freq
 ----------------------------------------------------------------------

 Structure from the checkpoint file:  "1-2-4-5-TtFB-ANI.chk"
 ---------------
 1 2 4 5 TtFB SP
 ---------------
 Charge = -1 Multiplicity = 2

                          Input orientation:
 ---------------------------------------------------------------------
 Center     Atomic      Atomic             Coordinates (Angstroms)
 Number     Number       Type             X           Y           Z
 ---------------------------------------------------------------------
      1          6           0        1.188113    0.695939    0.000000
      2          6           0        1.252685   -0.723232   -0.000000
      3          6           0       -0.008647   -1.376900   -0.000000
      4          6           0       -1.188113   -0.695939   -0.000000
      5          6           0       -1.252685    0.723232   -0.000000
      6          6           0        0.008647    1.376900    0.000000
      7          1           0        2.187341   -1.262862   -0.000000
      8          1           0       -2.187341    1.262862   -0.000000
      9          9           0       -0.021366   -2.740977    0.000000
     10          9           0       -2.363076   -1.388998    0.000000
     11          9           0        0.021366    2.740977    0.000000
     12          9           0        2.363076    1.388998    0.000000
 ---------------------------------------------------------------------

 SCF Done:  E(UPBE1PBE) =  -628.706601402     A.U. after    1 cycles

 Alpha  occ. eigenvalues --  -24.62360 -24.62360 -24.62360 -24.62360 -10.13750
 Alpha  occ. eigenvalues --  -10.13749 -10.13676 -10.13675 -10.05158 -10.05158
 Alpha  occ. eigenvalues --   -1.10614  -1.10570  -1.09297  -1.09267  -0.72210
 Alpha  occ. eigenvalues --   -0.61230  -0.60952  -0.50831  -0.48156  -0.42569
 Alpha  occ. eigenvalues --   -0.41339  -0.40111  -0.37211  -0.34857  -0.33569
 Alpha  occ. eigenvalues --   -0.32743  -0.31753  -0.31324  -0.30945  -0.29650
 Alpha  occ. eigenvalues --   -0.28458  -0.24586  -0.22962  -0.22220  -0.19625
 Alpha  occ. eigenvalues --   -0.10761  -0.09372   0.06920
 Alpha virt. eigenvalues --    0.11775   0.12048   0.15479   0.15674   0.17797
 Alpha virt. eigenvalues --    0.18492   0.19853   0.20069   0.21047   0.22067
 Alpha virt. eigenvalues --    0.22721   0.23675   0.24208   0.24225   0.25535

  Beta  occ. eigenvalues --  -24.62358 -24.62357 -24.62357 -24.62357 -10.13663
  Beta  occ. eigenvalues --  -10.13661 -10.13591 -10.13590 -10.04581 -10.04580
  Beta  occ. eigenvalues --   -1.10569  -1.10529  -1.09278  -1.09250  -0.71586
  Beta  occ. eigenvalues --   -0.60692  -0.59960  -0.49810  -0.48080  -0.42411
  Beta  occ. eigenvalues --   -0.41070  -0.39969  -0.37134  -0.34339  -0.33271
  Beta  occ. eigenvalues --   -0.32671  -0.31385  -0.31148  -0.30848  -0.29261
  Beta  occ. eigenvalues --   -0.28354  -0.24499  -0.22660  -0.22039  -0.18061
  Beta  occ. eigenvalues --   -0.07951  -0.07252
  Beta virt. eigenvalues --    0.12291   0.12628   0.15598   0.15671   0.15947
  Beta virt. eigenvalues --    0.18016   0.18917   0.20252   0.20794   0.22184
  Beta virt. eigenvalues --    0.22388   0.23051   0.24017   0.24510   0.24745

 Mulliken charges and spin densities:
               1          2
     1  C   -0.268242  -0.005324
     2  C    0.288256   0.556721
     3  C   -0.268265  -0.005316
     4  C   -0.268242  -0.005324
     5  C    0.288256   0.556721
     6  C   -0.268265  -0.005316
     7  H    0.213254  -0.047419
     8  H    0.213254  -0.047419
     9  F   -0.232499   0.000669
    10  F   -0.232503   0.000669
    11  F   -0.232499   0.000669
    12  F   -0.232503   0.000669
 Sum of Mulliken charges =  -1.00000   1.00000

 Dipole moment (field-independent basis, Debye):
    X=             -0.0000    Y=              0.0000    Z=             -0.0000  Tot=              0.0000
 Quadrupole moment (field-independent basis, Debye-Ang):
   XX=            -69.4241   YY=            -75.8142   ZZ=            -60.2685
   XY=             -5.5342   XZ=              0.0000   YZ=              0.0000

  Exact polarizability: 114.892 -18.986  92.967   0.000  -0.000 101.497
 Approx polarizability: 157.519 -24.656 129.049   0.000  -0.000  88.830

 ******    2 imaginary frequencies (negative Signs) ******

                      1                      2                      3
                      A                      A                      A
 Frequencies --   -649.3981              -404.6723                49.1837
 Red. masses --      1.2720                 1.5612                12.4789
 Frc consts  --      0.3160                 0.1506                 0.0178
 IR Inten    --    284.0499                 0.0000                 8.0836

                      4                      5                      6
                      A                      A                      A
 Frequencies --    143.2308               272.2869               290.8640
 Red. masses --     18.5331                17.9355                12.6391
 Frc consts  --      0.2240                 0.7835                 0.6300
 IR Inten    --      0.0000                 0.0000                 0.0000

                      7                      8                      9
                      A                      A                      A
 Frequencies --    297.0116               299.6310               329.9278
 Red. masses --     17.7991                 2.8878                14.5181
 Frc consts  --      0.9251                 0.1528                 0.9311
 IR Inten    --      0.2134                 0.0000                 0.9664

                     10                     11                     12
                      A                      A                      A
 Frequencies --    379.0294               414.3031               453.6848
 Red. masses --      3.7705                11.1798                14.5135
 Frc consts  --      0.3191                 1.1306                 1.7601
 IR Inten    --      4.1584                 0.0000                 0.0000

                     13                     14                     15
                      A                      A                      A
 Frequencies --    530.5967               618.0594               626.2883
 Red. masses --      9.2340                12.1934                 4.9942
 Frc consts  --      1.5317                 2.7443                 1.1541
 IR Inten    --      0.0000                 0.0000                 0.0000

                     16                     17                     18
                      A                      A                      A
 Frequencies --    691.0352               748.6307               831.6411
 Red. masses --     11.7053                 7.8751                 3.2320
 Frc consts  --      3.2933                 2.6004                 1.3170
 IR Inten    --     13.4831                 0.0000               126.8231

                     19                     20                     21
                      A                      A                      A
 Frequencies --   1016.8454              1122.6327              1123.6240
 Red. masses --     10.5802                 1.5422                 1.6244
 Frc consts  --      6.4454                 1.1452                 1.2084
 IR Inten    --      0.0000                 0.0000               194.2157

                     22                     23                     24
                      A                      A                      A
 Frequencies --   1160.1002              1320.9098              1346.7539
 Red. masses --      9.7241                10.9008                10.6934
 Frc consts  --      7.7106                11.2061                11.4272
 IR Inten    --    321.5009                 0.0000                 2.3403

                     25                     26                     27
                      A                      A                      A
 Frequencies --   1405.0628              1414.7363              1607.3429
 Red. masses --      6.4058                 4.1733                 7.6791
 Frc consts  --      7.4511                 4.9213                11.6890
 IR Inten    --    307.5817                 0.0000               138.6492

                     28                     29                     30
                      A                      A                      A
 Frequencies --   1743.1433              3267.7976              3270.1911
 Red. masses --     11.2367                 1.0907                 1.0927
 Frc consts  --     20.1166                 6.8622                 6.8851
 IR Inten    --      0.0000                 1.2501                 0.0000

 - Thermochemistry -
 -------------------
 Temperature   298.150 Kelvin.  Pressure   1.00000 Atm.
 Atom     1 has atomic number  6 and mass  12.00000

 Molecular mass:   150.00926 amu.
 Principal axes and moments of inertia in atomic units:
                           1         2         3
     Eigenvalues --   800.766371788.436592589.20295
           X            0.50000   0.86602   0.00000
           Y            0.86602  -0.50000   0.00000
           Z           -0.00000  -0.00000   1.00000
 This molecule is an asymmetric top.
 Rotational symmetry number  1.
 Warning -- assumption of classical behavior for rotation
           may cause significant error
 Rotational temperatures (Kelvin)      0.10816     0.04843     0.03345
 Rotational constants (GHZ):           2.25377     1.00912     0.69703
    2 imaginary frequencies ignored.
 Zero-point vibrational energy     160147.3 (Joules/Mol)
                                   38.27613 (Kcal/Mol)
 Warning -- explicit consideration of  12 degrees of freedom as
           vibrations may cause significant error
 Vibrational temperatures:     70.76   206.08   391.76   418.49   427.33
          (Kelvin)            431.10   474.69   545.34   596.09   652.75
                              763.41   889.25   901.09   994.25  1077.11
                             1196.55  1463.01  1615.22  1616.64  1669.13
                             1900.49  1937.68  2021.57  2035.49  2312.61
                             2507.99  4701.63  4705.08

 Zero-point correction=                           0.060997 (Hartree/Particle)
 Thermal correction to Energy=                    0.069242
 Thermal correction to Enthalpy=                  0.070186
 Thermal correction to Gibbs Free Energy=         0.026464
 Sum of electronic and zero-point Energies=           -628.645605
 Sum of electronic and thermal Energies=              -628.637359
 Sum of electronic and thermal Enthalpies=            -628.636415
 Sum of electronic and thermal Free Energies=         -628.680138

                     E (Thermal)             CV                S
                      KCal/Mol        Cal/Mol-Kelvin    Cal/Mol-Kelvin
 Total                   43.450             29.544             92.022
 Electronic               0.000              0.000              1.377
 Translational            0.889              2.981             40.927
 Rotational               0.889              2.981             29.696
 Vibrational             41.673             23.582             20.022
 Vibration     1          0.595              1.978              4.850
 Vibration     2          0.616              1.910              2.760
 Vibration     3          0.675              1.724              1.582
 Vibration     4          0.687              1.691              1.469
 Vibration     5          0.691              1.679              1.434
 Vibration     6          0.692              1.674              1.419
 Vibration     7          0.713              1.616              1.260
 Vibration     8          0.749              1.515              1.043
 Vibration     9          0.778              1.439              0.912
 Vibration    10          0.812              1.353              0.785
 Vibration    11          0.886              1.182              0.586
 Vibration    12          0.978              0.994              0.420

 Optimization completed.
    -- Stationary point found.
 Normal termination of Gaussian 16 at Thu Jan 30 13:19:03 2025.
