 Gaussian 16, Revision A.03,
 Gaussian 16:  ES64L-G16RevA.03 25-Dec-2016

 --------------------------------------------------------
 #p opt freq PBE1PBE/6-311++G(d,p) density=current nosymm
 --------------------------------------------------------

 ------------
 1 2 4-DFB SP
 ------------
 Symbolic Z-matrix:
 Charge =  1 Multiplicity = 2

 SCF Done:  E(UPBE1PBE) =  -529.201468797     A.U. after   20 cycles
 SCF Done:  E(UPBE1PBE) =  -529.211815618     A.U. after   17 cycles
 SCF Done:  E(UPBE1PBE) =  -529.212526352     A.U. after   15 cycles
 SCF Done:  E(UPBE1PBE) =  -529.212542213     A.U. after   14 cycles
 SCF Done:  E(UPBE1PBE) =  -529.212543156     A.U. after   11 cycles
 Optimization completed.
    -- Stationary point found.
 Normal termination of Gaussian 16 at Wed Jan 29 16:01:36 2025.

 ----------------------------------------------------------------------
 #P Geom=AllCheck Guess=TCheck SCRF=Check GenChk UPBE1PBE/6-311++G(d,p)
  Freq
 ----------------------------------------------------------------------

 Structure from the checkpoint file:  "1-2-4-TFB-CAT.chk"
 ------------
 1 2 4-DFB SP
 ------------
 Charge =  1 Multiplicity = 2

                          Input orientation:
 ---------------------------------------------------------------------
 Center     Atomic      Atomic             Coordinates (Angstroms)
 Number     Number       Type             X           Y           Z
 ---------------------------------------------------------------------
      1          6           0        1.229373    0.669016    0.000000
      2          6           0        1.245362   -0.697346    0.000000
      3          6           0        0.016049   -1.370523    0.000000
      4          6           0       -1.240266   -0.656210    0.000000
      5          6           0       -1.266611    0.710951    0.000000
      6          6           0       -0.028375    1.353879    0.000000
      7          1           0        2.139457    1.259875   -0.000000
      8          1           0        2.165034   -1.271947   -0.000000
      9          9           0       -0.035305   -2.656813   -0.000000
     10          9           0       -2.320648   -1.368377   -0.000000
     11          9           0        0.002951    2.646615   -0.000000
     12          1           0       -2.196941    1.267985   -0.000000
 ---------------------------------------------------------------------

 SCF Done:  E(UPBE1PBE) =  -529.212543156     A.U. after    1 cycles

 Alpha  occ. eigenvalues --  -25.03927 -25.02942 -25.02372 -10.59337 -10.58856
 Alpha  occ. eigenvalues --  -10.58117 -10.49187 -10.47845 -10.47300  -1.54090
 Alpha  occ. eigenvalues --   -1.52725  -1.51764  -1.15039  -1.04142  -1.02319
 Alpha  occ. eigenvalues --   -0.91219  -0.89903  -0.83228  -0.81690  -0.80382
 Alpha  occ. eigenvalues --   -0.76804  -0.76532  -0.74425  -0.72252  -0.70590
 Alpha  occ. eigenvalues --   -0.69989  -0.69538  -0.65899  -0.62596  -0.60948
 Alpha  occ. eigenvalues --   -0.60527  -0.51652  -0.50113
 Alpha virt. eigenvalues --   -0.26071  -0.24613  -0.15887  -0.13505  -0.11624
 Alpha virt. eigenvalues --   -0.10536  -0.09963  -0.08719  -0.08592  -0.07081
 Alpha virt. eigenvalues --   -0.05806  -0.04763  -0.04697  -0.03681  -0.02901

  Beta  occ. eigenvalues --  -25.03564 -25.02636 -25.02214 -10.58700 -10.58387
  Beta  occ. eigenvalues --  -10.57892 -10.48889 -10.47977 -10.47420  -1.53370
  Beta  occ. eigenvalues --   -1.52070  -1.51361  -1.14071  -1.03940  -1.00504
  Beta  occ. eigenvalues --   -0.90698  -0.89231  -0.82932  -0.81315  -0.80080
  Beta  occ. eigenvalues --   -0.76152  -0.74358  -0.72024  -0.70673  -0.70477
  Beta  occ. eigenvalues --   -0.69878  -0.69251  -0.65628  -0.62291  -0.60179
  Beta  occ. eigenvalues --   -0.58159  -0.51150
  Beta virt. eigenvalues --   -0.39851  -0.23126  -0.21884  -0.15365  -0.13398
  Beta virt. eigenvalues --   -0.11424  -0.10446  -0.08952  -0.08454  -0.07449
  Beta virt. eigenvalues --   -0.06923  -0.05635  -0.04515  -0.04349  -0.03303

 Mulliken charges and spin densities:
               1          2
     1  C    0.163486   0.189701
     2  C    0.122939  -0.102562
     3  C   -0.133654   0.392516
     4  C   -0.231565   0.165782
     5  C    0.643955  -0.135448
     6  C   -0.509928   0.332618
     7  H    0.335060  -0.013529
     8  H    0.331630   0.001796
     9  F   -0.016887   0.074197
    10  F   -0.049168   0.033034
    11  F   -0.002860   0.060304
    12  H    0.346990   0.001589
 Sum of Mulliken charges =   1.00000   1.00000

 Dipole moment (field-independent basis, Debye):
    X=              0.8618    Y=              0.3597    Z=              0.0000  Tot=              0.9339
 Quadrupole moment (field-independent basis, Debye-Ang):
   XX=            -33.4795   YY=            -39.1881   ZZ=            -46.2918
   XY=             -2.0543   XZ=             -0.0000   YZ=              0.0000

  Exact polarizability:  70.258   4.619  88.280   0.000   0.000  32.178
 Approx polarizability: 103.711  14.691 152.357   0.000   0.000  46.164

                      1                      2                      3
                      A                      A                      A
 Frequencies --    124.3314               197.9326               294.0865
 Red. masses --     10.2223                 7.7614                17.2726
 Frc consts  --      0.0931                 0.1792                 0.8802
 IR Inten    --      3.2505                 2.1738                 1.1327

                      4                      5                      6
                      A                      A                      A
 Frequencies --    322.1057               362.7233               408.8118
 Red. masses --      4.7659                13.8299                 9.9803
 Frc consts  --      0.2913                 1.0721                 0.9827
 IR Inten    --      0.0122                 8.4775                 8.0867

                      7                      8                      9
                      A                      A                      A
 Frequencies --    444.7859               492.9925               588.2854
 Red. masses --      3.4909                 9.1322                 5.4130
 Frc consts  --      0.4069                 1.3077                 1.1037
 IR Inten    --      0.4717                 2.8172                 4.1315

                     10                     11                     12
                      A                      A                      A
 Frequencies --    615.7529               683.4113               732.7120
 Red. masses --      3.5307                 7.1019                 9.0304
 Frc consts  --      0.7887                 1.9543                 2.8564
 IR Inten    --      6.4588                 0.0162                10.1472

                     13                     14                     15
                      A                      A                      A
 Frequencies --    791.4104               825.8368               878.7209
 Red. masses --      5.1251                 1.4952                 1.4028
 Frc consts  --      1.8913                 0.6008                 0.6382
 IR Inten    --     17.8251                15.3386                74.3729

                     16                     17                     18
                      A                      A                      A
 Frequencies --    957.5624               974.5819              1139.3822
 Red. masses --      2.7516                 1.2749                 1.2220
 Frc consts  --      1.4865                 0.7135                 0.9347
 IR Inten    --      4.0537                 1.9939                19.8851

                     19                     20                     21
                      A                      A                      A
 Frequencies --   1208.8982              1243.6818              1329.8370
 Red. masses --      1.6935                 3.1120                 2.5708
 Frc consts  --      1.4582                 2.8360                 2.6786
 IR Inten    --      8.4201               109.9608                66.5920

                     22                     23                     24
                      A                      A                      A
 Frequencies --   1395.6457              1454.8474              1484.5208
 Red. masses --      6.1451                 7.8050                 6.0085
 Frc consts  --      7.0523                 9.7332                 7.8016
 IR Inten    --     17.6567                12.5920                22.9030

                     25                     26                     27
                      A                      A                      A
 Frequencies --   1529.5364              1570.6262              1672.5699
 Red. masses --      4.8209                 7.3447                 7.2280
 Frc consts  --      6.6450                10.6751                11.9134
 IR Inten    --    739.7905               272.2633                26.8635

                     28                     29                     30
                      A                      A                      A
 Frequencies --   3224.5595              3234.0164              3235.6147
 Red. masses --      1.0916                 1.0967                 1.0996
 Frc consts  --      6.6876                 6.7580                 6.7824
 IR Inten    --      8.3419                64.9041                22.3651

 - Thermochemistry -
 -------------------
 Temperature   298.150 Kelvin.  Pressure   1.00000 Atm.
 Atom     1 has atomic number  6 and mass  12.00000

 Molecular mass:   132.01868 amu.
 Principal axes and moments of inertia in atomic units:
                           1         2         3
     Eigenvalues --   589.987341362.840981952.82832
           X            0.23269   0.97255  -0.00000
           Y            0.97255  -0.23269   0.00000
           Z           -0.00000   0.00000   1.00000
 This molecule is an asymmetric top.
 Rotational symmetry number  1.
 Warning -- assumption of classical behavior for rotation
           may cause significant error
 Rotational temperatures (Kelvin)      0.14681     0.06355     0.04435
 Rotational constants (GHZ):           3.05895     1.32425     0.92417
 Zero-point vibrational energy     199894.7 (Joules/Mol)
                                   47.77597 (Kcal/Mol)
 Warning -- explicit consideration of  10 degrees of freedom as
           vibrations may cause significant error
 Vibrational temperatures:    178.89   284.78   423.12   463.44   521.88
          (Kelvin)            588.19   639.95   709.31   846.41   885.93
                              983.28  1054.21  1138.66  1188.19  1264.28
                             1377.72  1402.21  1639.32  1739.33  1789.38
                             1913.34  2008.02  2093.20  2135.89  2200.66
                             2259.78  2406.46  4639.42  4653.03  4655.33

 Zero-point correction=                           0.076136 (Hartree/Particle)
 Thermal correction to Energy=                    0.083111
 Thermal correction to Enthalpy=                  0.084055
 Thermal correction to Gibbs Free Energy=         0.043808
 Sum of electronic and zero-point Energies=           -529.136407
 Sum of electronic and thermal Energies=              -529.129432
 Sum of electronic and thermal Enthalpies=            -529.128488
 Sum of electronic and thermal Free Energies=         -529.168735

                     E (Thermal)             CV                S
                      KCal/Mol        Cal/Mol-Kelvin    Cal/Mol-Kelvin
 Total                   52.153             26.207             84.707
 Electronic               0.000              0.000              1.377
 Translational            0.889              2.981             40.546
 Rotational               0.889              2.981             28.842
 Vibrational             50.376             20.246             13.942
 Vibration     1          0.610              1.929              3.032
 Vibration     2          0.637              1.843              2.152
 Vibration     3          0.689              1.685              1.450
 Vibration     4          0.707              1.631              1.299
 Vibration     5          0.737              1.549              1.110
 Vibration     6          0.773              1.451              0.931
 Vibration     7          0.804              1.372              0.812
 Vibration     8          0.849              1.266              0.676
 Vibration     9          0.945              1.057              0.470
 Vibration    10          0.975              0.999              0.423

 Optimization completed.
    -- Stationary point found.
 Normal termination of Gaussian 16 at Wed Jan 29 16:09:18 2025.
