 Gaussian 16, Revision A.03,
 Gaussian 16:  ES64L-G16RevA.03 25-Dec-2016

 --------------------------------------------------------
 #p opt freq PBE1PBE/6-311++G(d,p) density=current nosymm
 --------------------------------------------------------

 ------------
 1 2 4-DFB SP
 ------------
 Symbolic Z-matrix:
 Charge = -1 Multiplicity = 2

 SCF Done:  E(UPBE1PBE) =  -529.520093962     A.U. after   32 cycles
 SCF Done:  E(UPBE1PBE) =  -529.528183470     A.U. after   17 cycles
 SCF Done:  E(UPBE1PBE) =  -529.528909620     A.U. after   15 cycles
 SCF Done:  E(UPBE1PBE) =  -529.528947728     A.U. after   13 cycles
 SCF Done:  E(UPBE1PBE) =  -529.528953391     A.U. after   13 cycles
 Optimization completed.
    -- Stationary point found.
 Normal termination of Gaussian 16 at Wed Jan 29 16:04:06 2025.

 ----------------------------------------------------------------------
 #P Geom=AllCheck Guess=TCheck SCRF=Check GenChk UPBE1PBE/6-311++G(d,p)
  Freq
 ----------------------------------------------------------------------

 Structure from the checkpoint file:  "1-2-4-TFB-ANI.chk"
 ------------
 1 2 4-DFB SP
 ------------
 Charge = -1 Multiplicity = 2

                          Input orientation:
 ---------------------------------------------------------------------
 Center     Atomic      Atomic             Coordinates (Angstroms)
 Number     Number       Type             X           Y           Z
 ---------------------------------------------------------------------
      1          6           0        1.212572    0.718057   -0.000000
      2          6           0        1.240889   -0.726827    0.000000
      3          6           0       -0.007798   -1.377015    0.000000
      4          6           0       -1.191699   -0.699734    0.000000
      5          6           0       -1.247961    0.731548    0.000000
      6          6           0        0.005101    1.360463   -0.000000
      7          1           0        2.126561    1.301500   -0.000000
      8          1           0        2.158485   -1.298714    0.000000
      9          9           0       -0.030806   -2.743005   -0.000000
     10          9           0       -2.374258   -1.386426   -0.000000
     11          9           0        0.001365    2.734286   -0.000000
     12          1           0       -2.182372    1.272970    0.000000
 ---------------------------------------------------------------------

 SCF Done:  E(UPBE1PBE) =  -529.528953391     A.U. after    1 cycles

 Alpha  occ. eigenvalues --  -24.61606 -24.61480 -24.61178 -10.13230 -10.12899
 Alpha  occ. eigenvalues --  -10.12451 -10.04761 -10.04201 -10.04194  -1.09693
 Alpha  occ. eigenvalues --   -1.08640  -1.08388  -0.70866  -0.60134  -0.59772
 Alpha  occ. eigenvalues --   -0.49163  -0.46695  -0.41111  -0.39217  -0.36712
 Alpha  occ. eigenvalues --   -0.34143  -0.33507  -0.31483  -0.30320  -0.29293
 Alpha  occ. eigenvalues --   -0.28948  -0.27981  -0.23656  -0.21832  -0.20739
 Alpha  occ. eigenvalues --   -0.19240  -0.10021  -0.08889   0.07744
 Alpha virt. eigenvalues --    0.11593   0.12257   0.13046   0.16179   0.17423
 Alpha virt. eigenvalues --    0.17965   0.19817   0.20538   0.21615   0.22490
 Alpha virt. eigenvalues --    0.22840   0.23686   0.24339   0.24634   0.25479

  Beta  occ. eigenvalues --  -24.61624 -24.61447 -24.61191 -10.13305 -10.12984
  Beta  occ. eigenvalues --  -10.12148 -10.04549 -10.03699 -10.03571  -1.09653
  Beta  occ. eigenvalues --   -1.08660  -1.08344  -0.70236  -0.59609  -0.58755
  Beta  occ. eigenvalues --   -0.48108  -0.46598  -0.40921  -0.38956  -0.36506
  Beta  occ. eigenvalues --   -0.34002  -0.33045  -0.31426  -0.30119  -0.29086
  Beta  occ. eigenvalues --   -0.28664  -0.27701  -0.23427  -0.21667  -0.20480
  Beta  occ. eigenvalues --   -0.17602  -0.07502  -0.06456
  Beta virt. eigenvalues --    0.11992   0.12789   0.13468   0.16430   0.16481
  Beta virt. eigenvalues --    0.17628   0.18295   0.20022   0.21371   0.22626
  Beta virt. eigenvalues --    0.22811   0.23281   0.24014   0.24667   0.25000

 Mulliken charges and spin densities:
               1          2
     1  C    0.080716   0.102639
     2  C   -0.084606   0.553870
     3  C   -0.256517  -0.106846
     4  C   -0.255441   0.122512
     5  C    0.276781   0.466004
     6  C   -0.635818  -0.031887
     7  H    0.173850  -0.016027
     8  H    0.180274  -0.047906
     9  F   -0.233907   0.000452
    10  F   -0.235392   0.000674
    11  F   -0.216344  -0.001943
    12  H    0.206405  -0.041544
 Sum of Mulliken charges =  -1.00000   1.00000

 Dipole moment (field-independent basis, Debye):
    X=              1.4806    Y=              0.7617    Z=             -0.0000  Tot=              1.6650
 Quadrupole moment (field-independent basis, Debye-Ang):
   XX=            -60.6520   YY=            -71.5364   ZZ=            -57.1097
   XY=             -2.3036   XZ=             -0.0000   YZ=              0.0000

  Exact polarizability: 115.910 -14.965  93.571   0.000  -0.000 121.331
 Approx polarizability: 163.851 -18.314 124.530   0.000  -0.000  90.762

 ******    2 imaginary frequencies (negative Signs) ******

                      1                      2                      3
                      A                      A                      A
 Frequencies --   -489.0054              -261.4000                51.9051
 Red. masses --      1.4145                 1.6967                 9.9404
 Frc consts  --      0.1993                 0.0683                 0.0158
 IR Inten    --    168.4546                 2.4074                23.1341

                      4                      5                      6
                      A                      A                      A
 Frequencies --    173.0357               279.9233               326.0092
 Red. masses --      9.4678                17.3185                 2.4990
 Frc consts  --      0.1670                 0.7995                 0.1565
 IR Inten    --      4.1474                 0.2518                 5.4910

                      7                      8                      9
                      A                      A                      A
 Frequencies --    331.1703               336.4608               434.6327
 Red. masses --     13.9488                 3.5751                 9.7990
 Frc consts  --      0.9013                 0.2385                 1.0906
 IR Inten    --      0.7957                 1.6859                 0.1889

                     10                     11                     12
                      A                      A                      A
 Frequencies --    468.2334               545.6218               567.1190
 Red. masses --      7.9213                 1.6930                 8.4430
 Frc consts  --      1.0232                 0.2970                 1.5999
 IR Inten    --      0.7618                 7.8326                 1.2218

                     13                     14                     15
                      A                      A                      A
 Frequencies --    578.9935               671.5308               713.0456
 Red. masses --      6.0853                 2.3590                 9.0844
 Frc consts  --      1.2019                 0.6268                 2.7213
 IR Inten    --      0.7596                12.0363                16.0752

                     16                     17                     18
                      A                      A                      A
 Frequencies --    769.6860               939.7172              1035.8103
 Red. masses --      5.4441                 3.8763                 1.6176
 Frc consts  --      1.9002                 2.0168                 1.0225
 IR Inten    --     53.8652                39.4889                38.6156

                     19                     20                     21
                      A                      A                      A
 Frequencies --   1077.8546              1115.1740              1199.8313
 Red. masses --      2.7284                 2.2418                 2.1188
 Frc consts  --      1.8675                 1.6426                 1.7972
 IR Inten    --     61.4326               180.1597                70.4669

                     22                     23                     24
                      A                      A                      A
 Frequencies --   1246.1257              1340.5030              1379.6290
 Red. masses --      4.1815                 3.9541                 3.3218
 Frc consts  --      3.8256                 4.1864                 3.7252
 IR Inten    --     77.7558                12.9110                56.0265

                     25                     26                     27
                      A                      A                      A
 Frequencies --   1429.9710              1559.5688              1673.5883
 Red. masses --      5.1323                 5.7268                10.0655
 Frc consts  --      6.1833                 8.2068                16.6105
 IR Inten    --    292.8233               114.7206                30.1791

                     28                     29                     30
                      A                      A                      A
 Frequencies --   3200.2576              3240.9287              3259.4652
 Red. masses --      1.0867                 1.0914                 1.0913
 Frc consts  --      6.5572                 6.7540                 6.8310
 IR Inten    --     18.8690                 9.4888                 1.9818

 - Thermochemistry -
 -------------------
 Temperature   298.150 Kelvin.  Pressure   1.00000 Atm.
 Atom     1 has atomic number  6 and mass  12.00000

 Molecular mass:   132.01868 amu.
 Principal axes and moments of inertia in atomic units:
                           1         2         3
     Eigenvalues --   595.357601441.171512036.52911
           X            0.22534   0.97428  -0.00000
           Y            0.97428  -0.22534   0.00000
           Z            0.00000   0.00000   1.00000
 This molecule is an asymmetric top.
 Rotational symmetry number  1.
 Warning -- assumption of classical behavior for rotation
           may cause significant error
 Rotational temperatures (Kelvin)      0.14548     0.06010     0.04253
 Rotational constants (GHZ):           3.03136     1.25227     0.88618
    2 imaginary frequencies ignored.
 Zero-point vibrational energy     179115.6 (Joules/Mol)
                                   42.80966 (Kcal/Mol)
 Warning -- explicit consideration of  11 degrees of freedom as
           vibrations may cause significant error
 Vibrational temperatures:     74.68   248.96   402.75   469.05   476.48
          (Kelvin)            484.09   625.34   673.68   785.03   815.96
                              833.04   966.18  1025.91  1107.41  1352.04
                             1490.30  1550.79  1604.49  1726.29  1792.90
                             1928.68  1984.98  2057.41  2243.87  2407.92
                             4604.46  4662.97  4689.64

 Zero-point correction=                           0.068222 (Hartree/Particle)
 Thermal correction to Energy=                    0.075662
 Thermal correction to Enthalpy=                  0.076606
 Thermal correction to Gibbs Free Energy=         0.034893
 Sum of electronic and zero-point Energies=           -529.460732
 Sum of electronic and thermal Energies=              -529.453291
 Sum of electronic and thermal Enthalpies=            -529.452347
 Sum of electronic and thermal Free Energies=         -529.494060

                     E (Thermal)             CV                S
                      KCal/Mol        Cal/Mol-Kelvin    Cal/Mol-Kelvin
 Total                   47.479             26.975             87.793
 Electronic               0.000              0.000              1.377
 Translational            0.889              2.981             40.546
 Rotational               0.889              2.981             28.948
 Vibrational             45.701             21.013             16.921
 Vibration     1          0.596              1.977              4.743
 Vibration     2          0.627              1.876              2.402
 Vibration     3          0.680              1.711              1.534
 Vibration     4          0.710              1.623              1.280
 Vibration     5          0.714              1.613              1.254
 Vibration     6          0.717              1.603              1.229
 Vibration     7          0.795              1.395              0.844
 Vibration     8          0.825              1.321              0.743
 Vibration     9          0.901              1.149              0.553
 Vibration    10          0.923              1.102              0.510
 Vibration    11          0.936              1.077              0.487

 Optimization completed.
    -- Stationary point found.
 Normal termination of Gaussian 16 at Wed Jan 29 16:11:55 2025.
