 Gaussian 16, Revision A.03,
 Gaussian 16:  ES64L-G16RevA.03 25-Dec-2016

 -----------------------------------------------
 #p PBE1PBE/6-311++G(d,p) density=current nosymm
 -----------------------------------------------

 ------------
 1 2 4-DFB SP
 ------------
 Symbolic Z-matrix:
 Charge =  0 Multiplicity = 1

                          Input orientation:
 ---------------------------------------------------------------------
 Center     Atomic      Atomic             Coordinates (Angstroms)
 Number     Number       Type             X           Y           Z
 ---------------------------------------------------------------------
      1          6           0        1.207257    0.697130   -0.000000
      2          6           0        1.200244   -0.693100    0.000000
      3          6           0        0.000083   -1.377339    0.000000
      4          6           0       -1.201044   -0.680683   -0.000000
      5          6           0       -1.218039    0.701533    0.000000
      6          6           0       -0.003132    1.365432    0.000000
      7          1           0        2.134309    1.256905   -0.000000
      8          1           0        2.124542   -1.259020    0.000000
      9          9           0       -0.019756   -2.712423   -0.000000
     10          9           0       -2.348076   -1.358289   -0.000000
     11          9           0       -0.009452    2.705682   -0.000000
     12          1           0       -2.156854    1.241275    0.000000
 ---------------------------------------------------------------------

 SCF Done:  E(RPBE1PBE) =  -529.548836980     A.U. after   14 cycles

 Alpha  occ. eigenvalues --  -24.80646 -24.80217 -24.79882 -10.34203 -10.33640
 Alpha  occ. eigenvalues --  -10.33422 -10.26464 -10.26154 -10.25839  -1.29740
 Alpha  occ. eigenvalues --   -1.28374  -1.28255  -0.92728  -0.81653  -0.80200
 Alpha  occ. eigenvalues --   -0.69157  -0.67312  -0.61197  -0.58715  -0.57727
 Alpha  occ. eigenvalues --   -0.54499  -0.53041  -0.50573  -0.49335  -0.49047
 Alpha  occ. eigenvalues --   -0.48745  -0.47600  -0.44103  -0.41323  -0.39686
 Alpha  occ. eigenvalues --   -0.38949  -0.29787  -0.27376
 Alpha virt. eigenvalues --   -0.03861  -0.01638   0.00250   0.01099   0.01871
 Alpha virt. eigenvalues --    0.03097   0.05214   0.06061   0.07676   0.08587
 Alpha virt. eigenvalues --    0.08594   0.09575   0.10563   0.11222   0.12050

 Mulliken charges:
               1
     1  C    0.125587
     2  C    0.151157
     3  C   -0.256618
     4  C   -0.273748
     5  C    0.613567
     6  C   -0.662807
     7  H    0.250262
     8  H    0.257132
     9  F   -0.170836
    10  F   -0.160285
    11  F   -0.148624
    12  H    0.275212
 Sum of Mulliken charges =  -0.00000

 Dipole moment (field-independent basis, Debye):
    X=              1.3505    Y=              0.7371    Z=              0.0000  Tot=              1.5385
 Quadrupole moment (field-independent basis, Debye-Ang):
   XX=            -44.9402   YY=            -56.6296   ZZ=            -50.2837
   XY=             -3.2943   XZ=             -0.0000   YZ=             -0.0000

 Normal termination of Gaussian 16 at Mon Jan 20 12:51:47 2025.
