 Gaussian 16, Revision A.03,
 Gaussian 16:  ES64L-G16RevA.03 25-Dec-2016

 --------------------------------------------------------
 #p opt freq PBE1PBE/6-311++G(d,p) density=current nosymm
 --------------------------------------------------------

 ------
 HFB SP
 ------
 Symbolic Z-matrix:
 Charge =  1 Multiplicity = 2

 SCF Done:  E(UPBE1PBE) =  -826.653484897     A.U. after   14 cycles
 SCF Done:  E(UPBE1PBE) =  -826.682637823     A.U. after   13 cycles
 SCF Done:  E(UPBE1PBE) =  -826.684174271     A.U. after   12 cycles
 SCF Done:  E(UPBE1PBE) =  -826.684245784     A.U. after   10 cycles
 SCF Done:  E(UPBE1PBE) =  -826.684254166     A.U. after   10 cycles
 Optimization completed.
    -- Stationary point found.
 Normal termination of Gaussian 16 at Thu Jan 30 14:36:50 2025.

 ----------------------------------------------------------------------
 #P Geom=AllCheck Guess=TCheck SCRF=Check GenChk UPBE1PBE/6-311++G(d,p)
  Freq
 ----------------------------------------------------------------------

 Structure from the checkpoint file:  "HFB-CAT.chk"
 ------
 HFB SP
 ------
 Charge =  1 Multiplicity = 2

                          Input orientation:
 ---------------------------------------------------------------------
 Center     Atomic      Atomic             Coordinates (Angstroms)
 Number     Number       Type             X           Y           Z
 ---------------------------------------------------------------------
      1          6           0        1.186071    0.723296    0.000000
      2          6           0        1.186071   -0.723296   -0.000000
      3          6           0        0.000000   -1.442721    0.000000
      4          6           0       -1.186071   -0.723296    0.000000
      5          6           0       -1.186071    0.723296   -0.000000
      6          6           0       -0.000000    1.442721    0.000000
      7          9           0        2.325385    1.317718   -0.000000
      8          9           0        2.325385   -1.317718    0.000000
      9          9           0       -0.000000   -2.743985    0.000000
     10          9           0       -2.325385   -1.317718   -0.000000
     11          9           0       -2.325385    1.317718   -0.000000
     12          9           0        0.000000    2.743985    0.000000
 ---------------------------------------------------------------------

 SCF Done:  E(UPBE1PBE) =  -826.684254166     A.U. after    1 cycles

 Alpha  occ. eigenvalues --  -25.05479 -25.05478 -25.05478 -25.05478 -25.02125
 Alpha  occ. eigenvalues --  -25.02125 -10.61213 -10.61211 -10.61170 -10.61169
 Alpha  occ. eigenvalues --  -10.57658 -10.57657  -1.56336  -1.56108  -1.54830
 Alpha  occ. eigenvalues --   -1.54535  -1.51355  -1.51260  -1.17819  -1.05884
 Alpha  occ. eigenvalues --   -1.05326  -0.94257  -0.93784  -0.87691  -0.86321
 Alpha  occ. eigenvalues --   -0.85148  -0.81657  -0.80543  -0.80366  -0.80204
 Alpha  occ. eigenvalues --   -0.79488  -0.77710  -0.76020  -0.74418  -0.71498
 Alpha  occ. eigenvalues --   -0.71234  -0.70846  -0.69262  -0.69077  -0.66231
 Alpha  occ. eigenvalues --   -0.65231  -0.62272  -0.60310  -0.51940  -0.50778
 Alpha virt. eigenvalues --   -0.28376  -0.24542  -0.23043  -0.14063  -0.13479
 Alpha virt. eigenvalues --   -0.12601  -0.10211  -0.09380  -0.06569  -0.06301
 Alpha virt. eigenvalues --   -0.05488  -0.05364  -0.05263  -0.04943  -0.03586

  Beta  occ. eigenvalues --  -25.05221 -25.05221 -25.05220 -25.05220 -25.02172
  Beta  occ. eigenvalues --  -25.02172 -10.60782 -10.60782 -10.60744 -10.60743
  Beta  occ. eigenvalues --  -10.57841 -10.57840  -1.55800  -1.55543  -1.54354
  Beta  occ. eigenvalues --   -1.53995  -1.51431  -1.51303  -1.16880  -1.05690
  Beta  occ. eigenvalues --   -1.03602  -0.93646  -0.93322  -0.87420  -0.86082
  Beta  occ. eigenvalues --   -0.84878  -0.81179  -0.80530  -0.80039  -0.79354
  Beta  occ. eigenvalues --   -0.78481  -0.75454  -0.74991  -0.72614  -0.71319
  Beta  occ. eigenvalues --   -0.70803  -0.70625  -0.69146  -0.68897  -0.65864
  Beta  occ. eigenvalues --   -0.65031  -0.62062  -0.57601  -0.50189
  Beta virt. eigenvalues --   -0.42001  -0.24183  -0.23275  -0.22626  -0.14041
  Beta virt. eigenvalues --   -0.13076  -0.12321  -0.09939  -0.07113  -0.06347
  Beta virt. eigenvalues --   -0.06273  -0.05358  -0.05074  -0.05070  -0.04950

 Mulliken charges and spin densities:
               1          2
     1  C    0.274918   0.250814
     2  C    0.274918   0.250814
     3  C    0.183259  -0.104667
     4  C    0.274918   0.250814
     5  C    0.274918   0.250814
     6  C    0.183259  -0.104667
     7  F   -0.055148   0.056045
     8  F   -0.055148   0.056045
     9  F   -0.122798  -0.009052
    10  F   -0.055148   0.056045
    11  F   -0.055148   0.056045
    12  F   -0.122798  -0.009052
 Sum of Mulliken charges =   1.00000   1.00000

 Dipole moment (field-independent basis, Debye):
    X=             -0.0000    Y=             -0.0000    Z=             -0.0000  Tot=              0.0000
 Quadrupole moment (field-independent basis, Debye-Ang):
   XX=            -51.6120   YY=            -55.6884   ZZ=            -56.9258
   XY=              0.0000   XZ=              0.0000   YZ=             -0.0000

  Exact polarizability:  96.338   0.000  79.257   0.000  -0.000  32.380
 Approx polarizability: 174.924   0.000 115.856   0.000  -0.000  46.274

 ******    1 imaginary frequencies (negative Signs) ******

                      1                      2                      3
                      A                      A                      A
 Frequencies --   -178.4477               116.5332               119.6252
 Red. masses --     15.2169                18.4306                18.2783
 Frc consts  --      0.2855                 0.1475                 0.1541
 IR Inten    --      0.0000                 0.0000                 0.0351

                      4                      5                      6
                      A                      A                      A
 Frequencies --    128.6104               220.2285               275.7761
 Red. masses --     17.3433                14.0164                18.4056
 Frc consts  --      0.1690                 0.4005                 0.8247
 IR Inten    --      0.0000                14.1080                 0.0000

                      7                      8                      9
                      A                      A                      A
 Frequencies --    278.9842               309.4690               315.2587
 Red. masses --     18.8873                18.3842                17.8815
 Frc consts  --      0.8661                 1.0374                 1.0471
 IR Inten    --      0.3266                 0.0000                 7.2894

                     10                     11                     12
                      A                      A                      A
 Frequencies --    334.9987               355.2156               390.1016
 Red. masses --     17.6838                13.0290                12.4659
 Frc consts  --      1.1693                 0.9686                 1.1177
 IR Inten    --      4.3835                 0.0000                 0.0000

                     13                     14                     15
                      A                      A                      A
 Frequencies --    437.4851               443.5771               567.6432
 Red. masses --     16.0207                12.6581                16.9125
 Frc consts  --      1.8066                 1.4674                 3.2108
 IR Inten    --      0.0000                 0.0000                 0.0000

                     16                     17                     18
                      A                      A                      A
 Frequencies --    607.2832               607.5641               664.2851
 Red. masses --     16.9788                12.2903                12.2381
 Frc consts  --      3.6893                 2.6730                 3.1818
 IR Inten    --      0.0543                 1.8849                 0.0000

                     19                     20                     21
                      A                      A                      A
 Frequencies --    812.4562              1061.2805              1063.1356
 Red. masses --     12.6930                13.1568                13.5644
 Frc consts  --      4.9364                 8.7309                 9.0329
 IR Inten    --      0.0000                 0.0000                52.5614

                     22                     23                     24
                      A                      A                      A
 Frequencies --   1068.7781              1248.1529              1354.3679
 Red. masses --     14.1733                13.7261                13.1812
 Frc consts  --      9.5389                12.5989                14.2455
 IR Inten    --    229.7255                 0.0000                 0.0000

                     25                     26                     27
                      A                      A                      A
 Frequencies --   1391.9687              1441.1875              1502.4962
 Red. masses --     12.2271                12.9581                12.6564
 Frc consts  --     13.9583                15.8574                16.8340
 IR Inten    --     26.6426                 4.3538              1359.4697

                     28                     29                     30
                      A                      A                      A
 Frequencies --   1573.9014              1637.2676              1671.9349
 Red. masses --     12.8009                12.4664                12.3371
 Frc consts  --     18.6830                19.6893                20.3190
 IR Inten    --      0.0000               422.9590                 0.0000

 - Thermochemistry -
 -------------------
 Temperature   298.150 Kelvin.  Pressure   1.00000 Atm.
 Atom     1 has atomic number  6 and mass  12.00000

 Molecular mass:   185.99042 amu.
 Principal axes and moments of inertia in atomic units:
                           1         2         3
     Eigenvalues --  1708.589731760.946273469.53599
           X           -0.00000   1.00000   0.00000
           Y            1.00000   0.00000  -0.00000
           Z            0.00000  -0.00000   1.00000
 This molecule is an asymmetric top.
 Rotational symmetry number  2.
 Warning -- assumption of classical behavior for rotation
           may cause significant error
 Rotational temperatures (Kelvin)      0.05069     0.04919     0.02496
 Rotational constants (GHZ):           1.05628     1.02487     0.52017
    1 imaginary frequencies ignored.
 Zero-point vibrational energy     131586.6 (Joules/Mol)
                                   31.44996 (Kcal/Mol)
 Warning -- explicit consideration of  16 degrees of freedom as
           vibrations may cause significant error
 Vibrational temperatures:    167.67   172.11   185.04   316.86   396.78
          (Kelvin)            401.40   445.26   453.59   481.99   511.08
                              561.27   629.44   638.21   816.71   873.75
                              874.15   955.76  1168.94  1526.95  1529.62
                             1537.73  1795.81  1948.63  2002.73  2073.55
                             2161.76  2264.49  2355.66  2405.54

 Zero-point correction=                           0.050119 (Hartree/Particle)
 Thermal correction to Energy=                    0.059698
 Thermal correction to Enthalpy=                  0.060642
 Thermal correction to Gibbs Free Energy=         0.014756
 Sum of electronic and zero-point Energies=           -826.634135
 Sum of electronic and thermal Energies=              -826.624556
 Sum of electronic and thermal Enthalpies=            -826.623612
 Sum of electronic and thermal Free Energies=         -826.669499

                     E (Thermal)             CV                S
                      KCal/Mol        Cal/Mol-Kelvin    Cal/Mol-Kelvin
 Total                   37.461             34.038             96.577
 Electronic               0.000              0.000              1.377
 Translational            0.889              2.981             41.568
 Rotational               0.889              2.981             29.347
 Vibrational             35.684             28.076             24.285
 Vibration     1          0.608              1.936              3.157
 Vibration     2          0.609              1.933              3.106
 Vibration     3          0.611              1.925              2.967
 Vibration     4          0.647              1.810              1.957
 Vibration     5          0.677              1.718              1.560
 Vibration     6          0.679              1.712              1.540
 Vibration     7          0.699              1.656              1.365
 Vibration     8          0.703              1.645              1.335
 Vibration     9          0.716              1.606              1.236
 Vibration    10          0.731              1.565              1.143
 Vibration    11          0.758              1.491              1.000
 Vibration    12          0.798              1.388              0.835
 Vibration    13          0.803              1.375              0.815
 Vibration    14          0.924              1.101              0.509
 Vibration    15          0.966              1.016              0.437
 Vibration    16          0.966              1.016              0.437

 Optimization completed.
    -- Stationary point found.
 Normal termination of Gaussian 16 at Thu Jan 30 14:46:59 2025.
