 Gaussian 16, Revision A.03,
 Gaussian 16:  ES64L-G16RevA.03 25-Dec-2016

 --------------------------------------------------------
 #p opt freq PBE1PBE/6-311++G(d,p) density=current nosymm
 --------------------------------------------------------

 ------
 HFB SP
 ------
 Symbolic Z-matrix:
 Charge = -1 Multiplicity = 2

 SCF Done:  E(UPBE1PBE) =  -827.038290977     A.U. after   12 cycles
 SCF Done:  E(UPBE1PBE) =  -827.049515907     A.U. after   13 cycles
 SCF Done:  E(UPBE1PBE) =  -827.050117631     A.U. after   11 cycles
 SCF Done:  E(UPBE1PBE) =  -827.050287946     A.U. after   11 cycles
 Optimization completed.
    -- Stationary point found.
 Normal termination of Gaussian 16 at Thu Jan 30 14:36:58 2025.

 ----------------------------------------------------------------------
 #P Geom=AllCheck Guess=TCheck SCRF=Check GenChk UPBE1PBE/6-311++G(d,p)
  Freq
 ----------------------------------------------------------------------

 Structure from the checkpoint file:  "HFB-ANI.chk"
 ------
 HFB SP
 ------
 Charge = -1 Multiplicity = 2

                          Input orientation:
 ---------------------------------------------------------------------
 Center     Atomic      Atomic             Coordinates (Angstroms)
 Number     Number       Type             X           Y           Z
 ---------------------------------------------------------------------
      1          6           0        1.190732    0.687464   -0.000000
      2          6           0        1.190732   -0.687464    0.000000
      3          6           0        0.000000   -1.374921    0.000000
      4          6           0       -1.190732   -0.687464    0.000000
      5          6           0       -1.190732    0.687464   -0.000000
      6          6           0        0.000000    1.374921    0.000000
      7          9           0        2.384964    1.376969   -0.000000
      8          9           0        2.384964   -1.376969   -0.000000
      9          9           0       -0.000000   -2.753908   -0.000000
     10          9           0       -2.384964   -1.376969   -0.000000
     11          9           0       -2.384964    1.376969    0.000000
     12          9           0       -0.000000    2.753908   -0.000000
 ---------------------------------------------------------------------

 SCF Done:  E(UPBE1PBE) =  -827.050287946     A.U. after    1 cycles

 Alpha  occ. eigenvalues --  -24.64712 -24.64711 -24.64711 -24.64711 -24.64711
 Alpha  occ. eigenvalues --  -24.64710 -10.18951 -10.18920 -10.18920 -10.18852
 Alpha  occ. eigenvalues --  -10.18852 -10.18819  -1.13383  -1.12735  -1.12735
 Alpha  occ. eigenvalues --   -1.11530  -1.11530  -1.10941  -0.79397  -0.66554
 Alpha  occ. eigenvalues --   -0.66553  -0.54272  -0.54272  -0.47234  -0.46608
 Alpha  occ. eigenvalues --   -0.44859  -0.41441  -0.41441  -0.39384  -0.39384
 Alpha  occ. eigenvalues --   -0.39244  -0.35836  -0.35836  -0.33122  -0.33122
 Alpha  occ. eigenvalues --   -0.32313  -0.30947  -0.30947  -0.29792  -0.28169
 Alpha  occ. eigenvalues --   -0.28169  -0.25715  -0.22900  -0.13221  -0.13221
 Alpha  occ. eigenvalues --    0.03763
 Alpha virt. eigenvalues --    0.12954   0.12954   0.13547   0.13547   0.16871
 Alpha virt. eigenvalues --    0.16872   0.17219   0.17257   0.18899   0.20667
 Alpha virt. eigenvalues --    0.20667   0.21028   0.23138   0.23139   0.23435

  Beta  occ. eigenvalues --  -24.64486 -24.64486 -24.64485 -24.64485 -24.64485
  Beta  occ. eigenvalues --  -24.64485 -10.18887 -10.18857 -10.18857 -10.18790
  Beta  occ. eigenvalues --  -10.18790 -10.18757  -1.12807  -1.12159  -1.12159
  Beta  occ. eigenvalues --   -1.10953  -1.10953  -1.10364  -0.78612  -0.66116
  Beta  occ. eigenvalues --   -0.66115  -0.53840  -0.53840  -0.46333  -0.46234
  Beta  occ. eigenvalues --   -0.44255  -0.40746  -0.40745  -0.38904  -0.38819
  Beta  occ. eigenvalues --   -0.38819  -0.35563  -0.35563  -0.32893  -0.32892
  Beta  occ. eigenvalues --   -0.32093  -0.30725  -0.30724  -0.29579  -0.27883
  Beta  occ. eigenvalues --   -0.27883  -0.25479  -0.22618  -0.12893  -0.12892
  Beta virt. eigenvalues --    0.09488   0.13349   0.13349   0.14951   0.14952
  Beta virt. eigenvalues --    0.17995   0.17995   0.18325   0.18716   0.20145
  Beta virt. eigenvalues --    0.21744   0.21745   0.21796   0.24355   0.24739

 Mulliken charges and spin densities:
               1          2
     1  C   -0.009117   0.236840
     2  C   -0.009117   0.236840
     3  C   -0.008953   0.236616
     4  C   -0.009118   0.236840
     5  C   -0.009118   0.236840
     6  C   -0.008953   0.236616
     7  F   -0.157603  -0.070103
     8  F   -0.157603  -0.070103
     9  F   -0.157607  -0.070090
    10  F   -0.157603  -0.070103
    11  F   -0.157603  -0.070103
    12  F   -0.157607  -0.070090
 Sum of Mulliken charges =  -1.00000   1.00000

 Dipole moment (field-independent basis, Debye):
    X=              0.0000    Y=             -0.0000    Z=              0.0000  Tot=              0.0000
 Quadrupole moment (field-independent basis, Debye-Ang):
   XX=            -91.0967   YY=            -91.0971   ZZ=            -68.3376
   XY=              0.0000   XZ=              0.0000   YZ=             -0.0000

  Exact polarizability: 227.607  -0.000 227.869   0.000  -0.000  96.500
 Approx polarizability: 320.285  -0.000 320.285   0.000  -0.000 109.559

 ******    2 imaginary frequencies (negative Signs) ******

                      1                      2                      3
                      A                      A                      A
 Frequencies --   -411.2609              -411.0938               137.4335
 Red. masses --     15.5875                15.5894                18.9545
 Frc consts  --      1.5533                 1.5523                 0.2109
 IR Inten    --      0.0000                 0.0002                 0.0000

                      4                      5                      6
                      A                      A                      A
 Frequencies --    213.0328               263.5747               263.5755
 Red. masses --     13.9958                18.7951                18.7953
 Frc consts  --      0.3742                 0.7693                 0.7693
 IR Inten    --      4.6864                 0.0000                 0.0000

                      7                      8                      9
                      A                      A                      A
 Frequencies --    277.1492               279.7486               279.8147
 Red. masses --     18.9984                18.0938                18.0936
 Frc consts  --      0.8598                 0.8343                 0.8347
 IR Inten    --      0.0002                41.9490                41.8820

                     10                     11                     12
                      A                      A                      A
 Frequencies --    311.2458               311.2691               409.7996
 Red. masses --     13.9246                13.9231                16.3940
 Frc consts  --      0.7948                 0.7948                 1.6221
 IR Inten    --      0.0000                 0.0000                 0.0000

                     13                     14                     15
                      A                      A                      A
 Frequencies --    409.8319               462.6343               462.6557
 Red. masses --     16.3937                12.6330                12.6330
 Frc consts  --      1.6223                 1.5931                 1.5932
 IR Inten    --      0.0000                 0.0000                 0.0000

                     16                     17                     18
                      A                      A                      A
 Frequencies --    485.0125               514.4804               674.7047
 Red. masses --     17.9755                18.2041                12.0176
 Frc consts  --      2.4914                 2.8390                 3.2233
 IR Inten    --      0.0000                 0.0000                 0.0000

                     19                     20                     21
                      A                      A                      A
 Frequencies --    743.7162               816.1216               816.1590
 Red. masses --     12.6330                14.5087                14.5088
 Frc consts  --      4.1169                 5.6936                 5.6942
 IR Inten    --      0.0000              1224.0848              1224.2419

                     22                     23                     24
                      A                      A                      A
 Frequencies --    928.1233               928.1661              1077.0044
 Red. masses --     13.4352                13.4352                12.4474
 Frc consts  --      6.8188                 6.8194                 8.5068
 IR Inten    --      0.0000                 0.0000                 0.0002

                     25                     26                     27
                      A                      A                      A
 Frequencies --   1273.2154              1352.7102              1352.7378
 Red. masses --     12.3401                12.0153                12.0153
 Frc consts  --     11.7861                12.9537                12.9542
 IR Inten    --      0.0000              1213.5013              1213.7273

                     28                     29                     30
                      A                      A                      A
 Frequencies --   1445.9985              1691.3419              1691.3750
 Red. masses --     12.0000                12.0043                12.0043
 Frc consts  --     14.7832                20.2324                20.2332
 IR Inten    --      0.0001                 0.0000                 0.0000

 - Thermochemistry -
 -------------------
 Temperature   298.150 Kelvin.  Pressure   1.00000 Atm.
 Atom     1 has atomic number  6 and mass  12.00000

 Molecular mass:   185.99042 amu.
 Principal axes and moments of inertia in atomic units:
                           1         2         3
     Eigenvalues --  1786.640731786.647773573.28850
           X            1.00000  -0.00000   0.00000
           Y            0.00000   1.00000  -0.00000
           Z           -0.00000   0.00000   1.00000
 This molecule is an asymmetric top.
 Rotational symmetry number  1.
 Warning -- assumption of classical behavior for rotation
           may cause significant error
 Rotational temperatures (Kelvin)      0.04848     0.04848     0.02424
 Rotational constants (GHZ):           1.01013     1.01013     0.50506
    2 imaginary frequencies ignored.
 Zero-point vibrational energy     118864.7 (Joules/Mol)
                                   28.40935 (Kcal/Mol)
 Warning -- explicit consideration of  15 degrees of freedom as
           vibrations may cause significant error
 Vibrational temperatures:    197.74   306.51   379.23   379.23   398.76
          (Kelvin)            402.50   402.59   447.81   447.85   589.61
                              589.66   665.63   665.66   697.82   740.22
                              970.75  1070.04  1174.22  1174.27  1335.36
                             1335.42  1549.57  1831.87  1946.25  1946.29
                             2080.47  2433.46  2433.51

 Zero-point correction=                           0.045273 (Hartree/Particle)
 Thermal correction to Energy=                    0.054489
 Thermal correction to Enthalpy=                  0.055434
 Thermal correction to Gibbs Free Energy=         0.010146
 Sum of electronic and zero-point Energies=           -827.005015
 Sum of electronic and thermal Energies=              -826.995799
 Sum of electronic and thermal Enthalpies=            -826.994854
 Sum of electronic and thermal Free Energies=         -827.040142

                     E (Thermal)             CV                S
                      KCal/Mol        Cal/Mol-Kelvin    Cal/Mol-Kelvin
 Total                   34.193             34.362             95.316
 Electronic               0.000              0.000              1.377
 Translational            0.889              2.981             41.568
 Rotational               0.889              2.981             30.812
 Vibrational             32.415             28.400             21.559
 Vibration     1          0.614              1.916              2.839
 Vibration     2          0.644              1.821              2.018
 Vibration     3          0.670              1.740              1.638
 Vibration     4          0.670              1.740              1.638
 Vibration     5          0.678              1.716              1.551
 Vibration     6          0.680              1.711              1.535
 Vibration     7          0.680              1.711              1.535
 Vibration     8          0.700              1.652              1.356
 Vibration     9          0.700              1.652              1.356
 Vibration    10          0.774              1.449              0.927
 Vibration    11          0.774              1.449              0.927
 Vibration    12          0.820              1.333              0.758
 Vibration    13          0.820              1.333              0.758
 Vibration    14          0.841              1.283              0.697
 Vibration    15          0.870              1.218              0.623

 Optimization completed.
    -- Stationary point found.
 Normal termination of Gaussian 16 at Thu Jan 30 14:47:20 2025.
