 Gaussian 16, Revision A.03,
 Gaussian 16:  ES64L-G16RevA.03 25-Dec-2016

 -----------------------------------------------
 #p PBE1PBE/6-311++G(d,p) density=current nosymm
 -----------------------------------------------

 ------
 HFB SP
 ------
 Symbolic Z-matrix:
 Charge =  0 Multiplicity = 1

                          Input orientation:
 ---------------------------------------------------------------------
 Center     Atomic      Atomic             Coordinates (Angstroms)
 Number     Number       Type             X           Y           Z
 ---------------------------------------------------------------------
      1          6           0        1.231668    0.711104    0.000000
      2          6           0        1.231668   -0.711104    0.000000
      3          6           0        0.000000   -1.422208    0.000000
      4          6           0       -1.231668   -0.711104    0.000000
      5          6           0       -1.231668    0.711104    0.000000
      6          6           0        0.000000    1.422208    0.000000
      7          9           0        2.407080    1.389728    0.000000
      8          9           0        2.407080   -1.389728    0.000000
      9          9           0        0.000000   -2.779456    0.000000
     10          9           0       -2.407080   -1.389728    0.000000
     11          9           0       -2.407080    1.389728    0.000000
     12          9           0        0.000000    2.779456    0.000000
 ---------------------------------------------------------------------

 SCF Done:  E(RPBE1PBE) =  -827.030721119     A.U. after    9 cycles

 Alpha  occ. eigenvalues --  -24.83546 -24.83545 -24.83545 -24.83544 -24.83544
 Alpha  occ. eigenvalues --  -24.83544 -10.38808 -10.38786 -10.38786 -10.38737
 Alpha  occ. eigenvalues --  -10.38737 -10.38713  -1.32117  -1.31515  -1.31515
 Alpha  occ. eigenvalues --   -1.30374  -1.30374  -1.29816  -0.95263  -0.83761
 Alpha  occ. eigenvalues --   -0.83761  -0.72012  -0.72012  -0.64586  -0.64398
 Alpha  occ. eigenvalues --   -0.63378  -0.59489  -0.59488  -0.57801  -0.57801
 Alpha  occ. eigenvalues --   -0.56974  -0.54029  -0.54029  -0.51431  -0.51431
 Alpha  occ. eigenvalues --   -0.50632  -0.49284  -0.49284  -0.48260  -0.45864
 Alpha  occ. eigenvalues --   -0.45864  -0.42860  -0.39689  -0.30543  -0.30543
 Alpha virt. eigenvalues --   -0.06505  -0.05940  -0.05940   0.01255   0.01255
 Alpha virt. eigenvalues --    0.03615   0.04755   0.06261   0.06261   0.08317
 Alpha virt. eigenvalues --    0.08731   0.08761   0.08761   0.09893   0.09893

 Mulliken charges:
               1
     1  C    0.175718
     2  C    0.175718
     3  C    0.175642
     4  C    0.175718
     5  C    0.175718
     6  C    0.175642
     7  F   -0.175695
     8  F   -0.175695
     9  F   -0.175686
    10  F   -0.175695
    11  F   -0.175695
    12  F   -0.175686
 Sum of Mulliken charges =  -0.00000

 Dipole moment (field-independent basis, Debye):
    X=             -0.0000    Y=              0.0000    Z=             -0.0000  Tot=              0.0000
 Quadrupole moment (field-independent basis, Debye-Ang):
   XX=            -70.2898   YY=            -70.2898   ZZ=            -61.2597
   XY=              0.0000   XZ=              0.0000   YZ=              0.0000

 Normal termination of Gaussian 16 at Tue Jan 21 13:19:08 2025.
