 Gaussian 16, Revision A.03,
 Gaussian 16:  ES64L-G16RevA.03 25-Dec-2016

 --------------------------------------------------------
 #p opt freq PBE1PBE/6-311++G(d,p) density=current nosymm
 --------------------------------------------------------

 ----------
 1 2-DFB SP
 ----------
 Symbolic Z-matrix:
 Charge =  1 Multiplicity = 2

 SCF Done:  E(UPBE1PBE) =  -430.026804832     A.U. after   20 cycles
 SCF Done:  E(UPBE1PBE) =  -430.035502708     A.U. after   16 cycles
 SCF Done:  E(UPBE1PBE) =  -430.036130454     A.U. after   15 cycles
 SCF Done:  E(UPBE1PBE) =  -430.036142382     A.U. after   11 cycles
 Optimization completed.
    -- Stationary point found.
 Normal termination of Gaussian 16 at Wed Jan 29 15:41:10 2025.

 ----------------------------------------------------------------------
 #P Geom=AllCheck Guess=TCheck SCRF=Check GenChk UPBE1PBE/6-311++G(d,p)
  Freq
 ----------------------------------------------------------------------

 Structure from the checkpoint file:  "1-2-DFB-CAT.chk"
 ----------
 1 2-DFB SP
 ----------
 Charge =  1 Multiplicity = 2

                          Input orientation:
 ---------------------------------------------------------------------
 Center     Atomic      Atomic             Coordinates (Angstroms)
 Number     Number       Type             X           Y           Z
 ---------------------------------------------------------------------
      1          6           0        1.209484    0.654949    0.000000
      2          6           0        1.247957   -0.722202   -0.000000
      3          6           0        0.034402   -1.391667   -0.000000
      4          6           0       -1.222397   -0.666052    0.000000
      5          6           0       -1.249419    0.719676    0.000000
      6          6           0       -0.037556    1.374935   -0.000000
      7          1           0        2.135994    1.219857    0.000000
      8          1           0        2.174362   -1.285175   -0.000000
      9          1           0       -2.200190    1.240444   -0.000000
     10          1           0       -0.011554    2.459768    0.000000
     11          9           0       -0.036353   -2.678883    0.000000
     12          9           0       -2.301796   -1.370901   -0.000000
 ---------------------------------------------------------------------

 SCF Done:  E(UPBE1PBE) =  -430.036142382     A.U. after    1 cycles

 Alpha  occ. eigenvalues --  -25.03195 -25.03194 -10.58546 -10.58505 -10.49044
 Alpha  occ. eigenvalues --  -10.48999 -10.46352 -10.46351  -1.53790  -1.52172
 Alpha  occ. eigenvalues --   -1.14015  -1.02876  -1.01856  -0.89698  -0.88780
 Alpha  occ. eigenvalues --   -0.82487  -0.79316  -0.77151  -0.76442  -0.72628
 Alpha  occ. eigenvalues --   -0.71642  -0.68894  -0.68584  -0.64945  -0.62066
 Alpha  occ. eigenvalues --   -0.61627  -0.59320  -0.50967  -0.50525
 Alpha virt. eigenvalues --   -0.26196  -0.23711  -0.15197  -0.13822  -0.11079
 Alpha virt. eigenvalues --   -0.09110  -0.09059  -0.08647  -0.08318  -0.07813
 Alpha virt. eigenvalues --   -0.04588  -0.04498  -0.04171  -0.04068  -0.02736

  Beta  occ. eigenvalues --  -25.02893 -25.02892 -10.58057 -10.58019 -10.48642
  Beta  occ. eigenvalues --  -10.48601 -10.46531 -10.46529  -1.53129  -1.51536
  Beta  occ. eigenvalues --   -1.12980  -1.02668  -0.99955  -0.89165  -0.88035
  Beta  occ. eigenvalues --   -0.82069  -0.78925  -0.76908  -0.73848  -0.71236
  Beta  occ. eigenvalues --   -0.70549  -0.68790  -0.68373  -0.64603  -0.61809
  Beta  occ. eigenvalues --   -0.58982  -0.58599  -0.50395
  Beta virt. eigenvalues --   -0.39971  -0.22258  -0.21868  -0.14680  -0.13660
  Beta virt. eigenvalues --   -0.11051  -0.09049  -0.08351  -0.08163  -0.07539
  Beta virt. eigenvalues --   -0.06879  -0.04260  -0.04122  -0.03989  -0.03938

 Mulliken charges and spin densities:
               1          2
     1  C   -0.211388   0.293331
     2  C    0.230872  -0.158344
     3  C   -0.127525   0.316717
     4  C   -0.127494   0.316785
     5  C    0.230860  -0.158297
     6  C   -0.211475   0.293194
     7  H    0.308625  -0.017747
     8  H    0.319836   0.003938
     9  H    0.319838   0.003937
    10  H    0.308623  -0.017740
    11  F   -0.020399   0.062106
    12  F   -0.020374   0.062120
 Sum of Mulliken charges =   1.00000   1.00000

 Dipole moment (field-independent basis, Debye):
    X=              0.6599    Y=              1.1431    Z=              0.0000  Tot=              1.3199
 Quadrupole moment (field-independent basis, Debye-Ang):
   XX=            -29.8711   YY=            -31.5285   ZZ=            -42.6732
   XY=             -1.4345   XZ=             -0.0000   YZ=              0.0000

  Exact polarizability:  73.603   5.312  79.735  -0.000   0.000  32.024
 Approx polarizability: 112.087  18.536 133.483  -0.000  -0.000  46.009

                      1                      2                      3
                      A                      A                      A
 Frequencies --    147.6059               257.9721               297.8479
 Red. masses --      6.7224                 4.5571                17.6410
 Frc consts  --      0.0863                 0.1787                 0.9221
 IR Inten    --      0.0000                 0.0398                 1.8659

                      4                      5                      6
                      A                      A                      A
 Frequencies --    389.9930               404.5035               451.8826
 Red. masses --      9.5877                 2.6578                 3.6809
 Frc consts  --      0.8592                 0.2562                 0.4428
 IR Inten    --      4.8445                 0.0000                 0.2224

                      7                      8                      9
                      A                      A                      A
 Frequencies --    537.7241               568.2596               704.8864
 Red. masses --      6.0508                 7.8130                 7.4400
 Frc consts  --      1.0308                 1.4865                 2.1780
 IR Inten    --     12.3943                 3.0124                 0.0000

                     10                     11                     12
                      A                      A                      A
 Frequencies --    771.8649               777.7932               852.1041
 Red. masses --      5.6004                 1.2583                 7.2744
 Frc consts  --      1.9659                 0.4485                 3.1120
 IR Inten    --     12.6692                94.3420                 5.5072

                     13                     14                     15
                      A                      A                      A
 Frequencies --    867.3164               982.3291               984.6263
 Red. masses --      1.3410                 1.3275                 1.3919
 Frc consts  --      0.5943                 0.7547                 0.7951
 IR Inten    --      0.0000                 7.1588                 0.0007

                     16                     17                     18
                      A                      A                      A
 Frequencies --    989.8747              1122.9575              1191.0814
 Red. masses --      2.3802                 1.3436                 1.0799
 Frc consts  --      1.3741                 0.9983                 0.9027
 IR Inten    --     12.2132                27.8184                 1.5970

                     19                     20                     21
                      A                      A                      A
 Frequencies --   1210.2230              1345.2840              1370.5007
 Red. masses --      3.8776                 1.9324                 2.0123
 Frc consts  --      3.3461                 2.0605                 2.2269
 IR Inten    --      7.9557                 6.4661                21.1243

                     22                     23                     24
                      A                      A                      A
 Frequencies --   1439.1129              1490.1008              1536.0254
 Red. masses --     11.5927                 4.2932                 4.8465
 Frc consts  --     14.1457                 5.6165                 6.7371
 IR Inten    --      0.0635                97.4201               699.4075

                     25                     26                     27
                      A                      A                      A
 Frequencies --   1541.6092              1605.6497              3217.3852
 Red. masses --      3.0258                 6.9146                 1.0913
 Frc consts  --      4.2368                10.5032                 6.6557
 IR Inten    --     14.9187                31.1087                 0.0001

                     28                     29                     30
                      A                      A                      A
 Frequencies --   3225.7068              3235.2842              3237.5044
 Red. masses --      1.0918                 1.0975                 1.0995
 Frc consts  --      6.6932                 6.7682                 6.7898
 IR Inten    --      6.2472                53.5891                 6.6745

 - Thermochemistry -
 -------------------
 Temperature   298.150 Kelvin.  Pressure   1.00000 Atm.
 Atom     1 has atomic number  6 and mass  12.00000

 Molecular mass:   114.02811 amu.
 Principal axes and moments of inertia in atomic units:
                           1         2         3
     Eigenvalues --   556.84496 786.527421343.37237
           X            0.49998   0.86604  -0.00000
           Y            0.86604  -0.49998   0.00000
           Z            0.00000   0.00000   1.00000
 This molecule is an asymmetric top.
 Rotational symmetry number  1.
 Warning -- assumption of classical behavior for rotation
           may cause significant error
 Rotational temperatures (Kelvin)      0.15554     0.11012     0.06447
 Rotational constants (GHZ):           3.24101     2.29457     1.34344
 Zero-point vibrational energy     219843.8 (Joules/Mol)
                                   52.54392 (Kcal/Mol)
 Warning -- explicit consideration of   8 degrees of freedom as
           vibrations may cause significant error
 Vibrational temperatures:    212.37   371.16   428.54   561.11   581.99
          (Kelvin)            650.16   773.67   817.60  1014.17  1110.54
                             1119.07  1225.99  1247.87  1413.35  1416.66
                             1424.21  1615.69  1713.70  1741.24  1935.56
                             1971.84  2070.56  2143.92  2210.00  2218.03
                             2310.17  4629.10  4641.07  4654.85  4658.05

 Zero-point correction=                           0.083734 (Hartree/Particle)
 Thermal correction to Energy=                    0.089997
 Thermal correction to Enthalpy=                  0.090941
 Thermal correction to Gibbs Free Energy=         0.052648
 Sum of electronic and zero-point Energies=           -429.952408
 Sum of electronic and thermal Energies=              -429.946146
 Sum of electronic and thermal Enthalpies=            -429.945201
 Sum of electronic and thermal Free Energies=         -429.983495

                     E (Thermal)             CV                S
                      KCal/Mol        Cal/Mol-Kelvin    Cal/Mol-Kelvin
 Total                   56.474             23.637             80.595
 Electronic               0.000              0.000              1.377
 Translational            0.889              2.981             40.109
 Rotational               0.889              2.981             27.867
 Vibrational             54.696             17.675             11.242
 Vibration     1          0.617              1.905              2.703
 Vibration     2          0.667              1.749              1.675
 Vibration     3          0.691              1.678              1.429
 Vibration     4          0.758              1.492              1.000
 Vibration     5          0.770              1.460              0.946
 Vibration     6          0.811              1.357              0.790
 Vibration     7          0.893              1.167              0.570
 Vibration     8          0.924              1.100              0.508

 Optimization completed.
    -- Stationary point found.
 Normal termination of Gaussian 16 at Wed Jan 29 15:49:21 2025.
