 Gaussian 16, Revision A.03,
 Gaussian 16:  ES64L-G16RevA.03 25-Dec-2016

 -----------------------------------------------
 #p PBE1PBE/6-311++G(d,p) density=current nosymm
 -----------------------------------------------

 ----------
 1 2-DFB SP
 ----------
 Symbolic Z-matrix:
 Charge =  0 Multiplicity = 1

                          Input orientation:
 ---------------------------------------------------------------------
 Center     Atomic      Atomic             Coordinates (Angstroms)
 Number     Number       Type             X           Y           Z
 ---------------------------------------------------------------------
      1          6           0        1.201202    0.690786    0.000000
      2          6           0        1.206528   -0.699794    0.000000
      3          6           0        0.003996   -1.381117    0.000000
      4          6           0       -1.197907   -0.687075    0.000000
      5          6           0       -1.209206    0.695019    0.000000
      6          6           0       -0.002380    1.385757    0.000000
      7          1           0        2.142364    1.228859    0.000000
      8          1           0        2.129171   -1.268984    0.000000
      9          1           0       -2.163585    1.209209    0.000000
     10          1           0       -0.007035    2.469856    0.000000
     11          9           0       -0.015338   -2.716531   -0.000000
     12          9           0       -2.344874   -1.371234    0.000000
 ---------------------------------------------------------------------

 SCF Done:  E(RPBE1PBE) =  -430.372214808     A.U. after   12 cycles

 Alpha  occ. eigenvalues --  -24.79590 -24.79588 -10.32803 -10.32743 -10.25115
 Alpha  occ. eigenvalues --  -10.25113 -10.24860 -10.24799  -1.28799  -1.27406
 Alpha  occ. eigenvalues --   -0.91327  -0.80129  -0.79309  -0.67299  -0.65844
 Alpha  occ. eigenvalues --   -0.59700  -0.56234  -0.54672  -0.51964  -0.50193
 Alpha  occ. eigenvalues --   -0.48511  -0.47462  -0.46130  -0.43044  -0.40111
 Alpha  occ. eigenvalues --   -0.39047  -0.38195  -0.28712  -0.27210
 Alpha virt. eigenvalues --   -0.02763  -0.01527  -0.00080   0.01555   0.01701
 Alpha virt. eigenvalues --    0.03675   0.04372   0.06367   0.08107   0.08945
 Alpha virt. eigenvalues --    0.09140   0.09780   0.10336   0.11316   0.12417

 Mulliken charges:
               1
     1  C   -0.315606
     2  C    0.244566
     3  C   -0.225144
     4  C   -0.224986
     5  C    0.244562
     6  C   -0.315924
     7  H    0.214537
     8  H    0.246184
     9  H    0.246179
    10  H    0.214542
    11  F   -0.164482
    12  F   -0.164428
 Sum of Mulliken charges =  -0.00000

 Dipole moment (field-independent basis, Debye):
    X=              1.3704    Y=              2.3734    Z=             -0.0000  Tot=              2.7407
 Quadrupole moment (field-independent basis, Debye-Ang):
   XX=            -42.4385   YY=            -46.3330   ZZ=            -46.9229
   XY=             -3.3735   XZ=              0.0000   YZ=             -0.0000

 Normal termination of Gaussian 16 at Tue Jan 14 13:59:00 2025.
