 Gaussian 16, Revision A.03,
 Gaussian 16:  ES64L-G16RevA.03 25-Dec-2016

 --------------------------------------------------------
 #p opt freq PBE1PBE/6-311++G(d,p) density=current nosymm
 --------------------------------------------------------

 ----------
 1 2-DFB SP
 ----------
 Symbolic Z-matrix:
 Charge = -1 Multiplicity = 2

 SCF Done:  E(UPBE1PBE) =  -430.351910420     A.U. after   25 cycles
 SCF Done:  E(UPBE1PBE) =  -430.352109438     A.U. after   21 cycles
 SCF Done:  E(UPBE1PBE) =  -430.352127528     A.U. after   21 cycles
 Optimization completed.
    -- Stationary point found.
 Normal termination of Gaussian 16 at Wed Jan 29 15:42:24 2025.

 ----------------------------------------------------------------------
 #P Geom=AllCheck Guess=TCheck SCRF=Check GenChk UPBE1PBE/6-311++G(d,p)
  Freq
 ----------------------------------------------------------------------

 Structure from the checkpoint file:  "1-2-DFB-ANI.chk"
 ----------
 1 2-DFB SP
 ----------
 Charge = -1 Multiplicity = 2

                          Input orientation:
 ---------------------------------------------------------------------
 Center     Atomic      Atomic             Coordinates (Angstroms)
 Number     Number       Type             X           Y           Z
 ---------------------------------------------------------------------
      1          6           0        1.199578    0.689407   -0.000000
      2          6           0        1.206417   -0.699956    0.000000
      3          6           0        0.003668   -1.380013    0.000000
      4          6           0       -1.196967   -0.686831   -0.000000
      5          6           0       -1.209390    0.694812   -0.000000
      6          6           0       -0.002744    1.383570    0.000000
      7          1           0        2.143536    1.229467   -0.000000
      8          1           0        2.137324   -1.261389    0.000000
      9          1           0       -2.161063    1.220280   -0.000000
     10          1           0       -0.007010    2.471093    0.000000
     11          9           0       -0.019663   -2.725766   -0.000000
     12          9           0       -2.350753   -1.379924    0.000000
 ---------------------------------------------------------------------

 SCF Done:  E(UPBE1PBE) =  -430.352127528     A.U. after    2 cycles

 Alpha  occ. eigenvalues --  -24.68828 -24.68827 -10.21352 -10.21291 -10.13228
 Alpha  occ. eigenvalues --  -10.13226 -10.12360 -10.12298  -1.17698  -1.16333
 Alpha  occ. eigenvalues --   -0.79569  -0.68312  -0.67481  -0.55512  -0.54209
 Alpha  occ. eigenvalues --   -0.48430  -0.44646  -0.43014  -0.40970  -0.37916
 Alpha  occ. eigenvalues --   -0.37711  -0.35591  -0.35034  -0.31540  -0.27811
 Alpha  occ. eigenvalues --   -0.27371  -0.26531  -0.16969  -0.15619   0.05152
 Alpha virt. eigenvalues --    0.07949   0.08926   0.09238   0.10288   0.11149
 Alpha virt. eigenvalues --    0.11786   0.15941   0.16070   0.17837   0.18476
 Alpha virt. eigenvalues --    0.18983   0.19898   0.20121   0.20973   0.21633

  Beta  occ. eigenvalues --  -24.68824 -24.68824 -10.21351 -10.21290 -10.13213
  Beta  occ. eigenvalues --  -10.13211 -10.12330 -10.12268  -1.17690  -1.16326
  Beta  occ. eigenvalues --   -0.79529  -0.68270  -0.67430  -0.55460  -0.54160
  Beta  occ. eigenvalues --   -0.48383  -0.44589  -0.42965  -0.40968  -0.37794
  Beta  occ. eigenvalues --   -0.37710  -0.35515  -0.35012  -0.31500  -0.27711
  Beta  occ. eigenvalues --   -0.27337  -0.26457  -0.16943  -0.15595
  Beta virt. eigenvalues --    0.08976   0.09795   0.10328   0.10668   0.11173
  Beta virt. eigenvalues --    0.13392   0.13816   0.16334   0.17716   0.18237
  Beta virt. eigenvalues --    0.18827   0.19325   0.20526   0.21193   0.22332

 Mulliken charges and spin densities:
               1          2
     1  C    1.669564  -2.005170
     2  C    0.241202  -0.007305
     3  C   -0.485148   0.238508
     4  C   -0.485620   0.239009
     5  C    0.242606  -0.008709
     6  C    1.668132  -2.003753
     7  H   -1.340673   1.615718
     8  H   -0.390650   0.653050
     9  H   -0.390740   0.653160
    10  H   -1.341342   1.616403
    11  F   -0.193661   0.004543
    12  F   -0.193668   0.004546
 Sum of Mulliken charges =  -1.00000   1.00000

 Dipole moment (field-independent basis, Debye):
    X=             -3.7561    Y=             -6.5090    Z=              0.0000  Tot=              7.5150
 Quadrupole moment (field-independent basis, Debye-Ang):
   XX=            -90.4190   YY=            -96.4373   ZZ=            -63.7985
   XY=             -5.2048   XZ=              0.0000   YZ=              0.0000

  Exact polarizability:3240.306********1955.856  -0.000   0.000 177.890
 Approx polarizability:2063.452-735.0831214.608  -0.000   0.000 165.774

                      1                      2                      3
                      A                      A                      A
 Frequencies --    179.2291               264.2855               285.9997
 Red. masses --      6.0874                 4.6604                17.5054
 Frc consts  --      0.1152                 0.1918                 0.8436
 IR Inten    --      0.0000                 7.7842                 9.1164

                      4                      5                      6
                      A                      A                      A
 Frequencies --    425.0474               440.6930               548.3629
 Red. masses --      3.1440                 7.1841                 4.0687
 Frc consts  --      0.3347                 0.8220                 0.7208
 IR Inten    --    130.6555                 4.6368                 0.0000

                      7                      8                      9
                      A                      A                      A
 Frequencies --    551.1291               576.0183               705.2960
 Red. masses --      7.5797                 8.1086                 4.5134
 Frc consts  --      1.3565                 1.5851                 1.3228
 IR Inten    --    144.5719               129.7934                 0.0021

                     10                     11                     12
                      A                      A                      A
 Frequencies --    775.0875               800.7924               825.0742
 Red. masses --      5.9047                 1.2916                 6.4199
 Frc consts  --      2.0900                 0.4880                 2.5749
 IR Inten    --     17.0954              1516.0659               579.8452

                     13                     14                     15
                      A                      A                      A
 Frequencies --    860.5493               962.1213               991.6179
 Red. masses --      1.4225                 1.3636                 1.2636
 Frc consts  --      0.6207                 0.7437                 0.7321
 IR Inten    --      0.1561               244.8124                 0.1205

                     16                     17                     18
                      A                      A                      A
 Frequencies --   1053.5556              1112.1906              1167.0418
 Red. masses --      1.8312                 1.7866                 1.0904
 Frc consts  --      1.1976                 1.3021                 0.8750
 IR Inten    --      0.0751              1257.1889               164.2100

                     19                     20                     21
                      A                      A                      A
 Frequencies --   1200.8936              1284.6212              1295.4010
 Red. masses --      2.7590                 1.6102                 3.1440
 Frc consts  --      2.3443                 1.5656                 3.1084
 IR Inten    --    339.8289                 7.5631                46.4739

                     22                     23                     24
                      A                      A                      A
 Frequencies --   1377.0757              1496.5575              1543.7926
 Red. masses --      9.5863                 2.6169                 3.4894
 Frc consts  --     10.7107                 3.4532                 4.8997
 IR Inten    --     17.3200               172.4570                39.0549

                     25                     26                     27
                      A                      A                      A
 Frequencies --   1668.7338              1680.2109              3146.3670
 Red. masses --      7.4808                 8.3628                 1.0987
 Frc consts  --     12.2736                13.9100                 6.4082
 IR Inten    --    147.6141               111.1810                52.0735

                     28                     29                     30
                      A                      A                      A
 Frequencies --   3158.4188              3170.3764              3170.9232
 Red. masses --      1.0879                 1.0903                 1.0936
 Frc consts  --      6.3940                 6.4565                 6.4788
 IR Inten    --     85.3742                 0.3704              1142.8040

 - Thermochemistry -
 -------------------
 Temperature   298.150 Kelvin.  Pressure   1.00000 Atm.
 Atom     1 has atomic number  6 and mass  12.00000

 Molecular mass:   114.02811 amu.
 Principal axes and moments of inertia in atomic units:
                           1         2         3
     Eigenvalues --   550.41268 809.563511359.97619
           X            0.50000   0.86602   0.00000
           Y            0.86602  -0.50000  -0.00000
           Z            0.00000  -0.00000   1.00000
 This molecule is an asymmetric top.
 Rotational symmetry number  1.
 Warning -- assumption of classical behavior for rotation
           may cause significant error
 Rotational temperatures (Kelvin)      0.15736     0.10699     0.06369
 Rotational constants (GHZ):           3.27889     2.22928     1.32704
 Zero-point vibrational energy     219619.2 (Joules/Mol)
                                   52.49025 (Kcal/Mol)
 Warning -- explicit consideration of   8 degrees of freedom as
           vibrations may cause significant error
 Vibrational temperatures:    257.87   380.25   411.49   611.55   634.06
          (Kelvin)            788.97   792.95   828.76  1014.76  1115.18
                             1152.16  1187.10  1238.14  1384.28  1426.72
                             1515.83  1600.19  1679.11  1727.82  1848.28
                             1863.79  1981.30  2153.21  2221.17  2400.94
                             2417.45  4526.92  4544.26  4561.46  4562.25

 Zero-point correction=                           0.083649 (Hartree/Particle)
 Thermal correction to Energy=                    0.089715
 Thermal correction to Enthalpy=                  0.090659
 Thermal correction to Gibbs Free Energy=         0.052764
 Sum of electronic and zero-point Energies=           -430.268479
 Sum of electronic and thermal Energies=              -430.262413
 Sum of electronic and thermal Enthalpies=            -430.261468
 Sum of electronic and thermal Free Energies=         -430.299363

                     E (Thermal)             CV                S
                      KCal/Mol        Cal/Mol-Kelvin    Cal/Mol-Kelvin
 Total                   56.297             23.228             79.756
 Electronic               0.000              0.000              1.377
 Translational            0.889              2.981             40.109
 Rotational               0.889              2.981             27.896
 Vibrational             54.520             17.266             10.374
 Vibration     1          0.629              1.868              2.336
 Vibration     2          0.671              1.738              1.633
 Vibration     3          0.684              1.700              1.498
 Vibration     4          0.787              1.416              0.875
 Vibration     5          0.801              1.381              0.824
 Vibration     6          0.904              1.143              0.548
 Vibration     7          0.906              1.137              0.542
 Vibration     8          0.932              1.083              0.493

 Optimization completed.
    -- Stationary point found.
 Normal termination of Gaussian 16 at Wed Jan 29 15:51:01 2025.
