 Gaussian 16, Revision A.03,
 Gaussian 16:  ES64L-G16RevA.03 25-Dec-2016

 -----------------------------------------------
 #p PBE1PBE/6-311++G(d,p) density=current nosymm
 -----------------------------------------------

 ----------
 1 3-DFB SP
 ----------
 Symbolic Z-matrix:
 Charge =  0 Multiplicity = 1

                          Input orientation:
 ---------------------------------------------------------------------
 Center     Atomic      Atomic             Coordinates (Angstroms)
 Number     Number       Type             X           Y           Z
 ---------------------------------------------------------------------
      1          6           0        1.197458    0.691394   -0.000000
      2          6           0        1.211262   -0.698622    0.000000
      3          6           0       -0.002068   -1.363826    0.000000
      4          6           0       -1.218033   -0.703267    0.000000
      5          6           0       -1.182063    0.680119    0.000000
      6          6           0        0.000622    1.398397    0.000000
      7          1           0        2.136679    1.233579   -0.000000
      8          1           0        2.135615   -1.262987    0.000000
      9          1           0       -2.155618   -1.244429   -0.000000
     10          1           0       -0.025888    2.481081    0.000000
     11          9           0       -0.008433   -2.704712    0.000000
     12          9           0       -2.346599    1.344857   -0.000000
 ---------------------------------------------------------------------

 SCF Done:  E(RPBE1PBE) =  -430.378311679     A.U. after   13 cycles

 Alpha  occ. eigenvalues --  -24.79302 -24.79302 -10.33040 -10.33039 -10.25603
 Alpha  occ. eigenvalues --  -10.24940 -10.24559 -10.24556  -1.27799  -1.27749
 Alpha  occ. eigenvalues --   -0.91434  -0.80330  -0.79401  -0.66926  -0.66161
 Alpha  occ. eigenvalues --   -0.59730  -0.55281  -0.53637  -0.52210  -0.50858
 Alpha  occ. eigenvalues --   -0.49510  -0.47442  -0.46412  -0.42352  -0.40367
 Alpha  occ. eigenvalues --   -0.38859  -0.38751  -0.28757  -0.27414
 Alpha virt. eigenvalues --   -0.02847  -0.01510   0.00146   0.01697   0.02193
 Alpha virt. eigenvalues --    0.03742   0.05335   0.05542   0.06166   0.08956
 Alpha virt. eigenvalues --    0.09094   0.09970   0.10781   0.11864   0.12915

 Mulliken charges:
               1
     1  C   -0.368390
     2  C    0.185022
     3  C   -0.661304
     4  C    0.630884
     5  C   -0.661147
     6  C    0.184970
     7  H    0.227181
     8  H    0.241017
     9  H    0.271470
    10  H    0.241018
    11  F   -0.145370
    12  F   -0.145352
 Sum of Mulliken charges =  -0.00000

 Dipole moment (field-independent basis, Debye):
    X=              1.4126    Y=              0.8158    Z=              0.0000  Tot=              1.6313
 Quadrupole moment (field-independent basis, Debye-Ang):
   XX=            -42.5102   YY=            -46.3853   ZZ=            -46.9264
   XY=              3.3569   XZ=              0.0000   YZ=             -0.0000

 Normal termination of Gaussian 16 at Fri Jan 17 11:49:45 2025.
