 Gaussian 16, Revision A.03,
 Gaussian 16:  ES64L-G16RevA.03 25-Dec-2016

 --------------------------------------------------------
 #p opt freq PBE1PBE/6-311++G(d,p) density=current nosymm
 --------------------------------------------------------

 ----------
 1 3-DFB SP
 ----------
 Symbolic Z-matrix:
 Charge =  1 Multiplicity = 2

 SCF Done:  E(UPBE1PBE) =  -430.031163378     A.U. after   16 cycles
 SCF Done:  E(UPBE1PBE) =  -430.039735200     A.U. after   15 cycles
 SCF Done:  E(UPBE1PBE) =  -430.040323340     A.U. after   13 cycles
 SCF Done:  E(UPBE1PBE) =  -430.040340345     A.U. after   11 cycles
 SCF Done:  E(UPBE1PBE) =  -430.040340942     A.U. after    9 cycles
 Optimization completed.
    -- Stationary point found.
 Normal termination of Gaussian 16 at Wed Jan 29 15:53:37 2025.

 ----------------------------------------------------------------------
 #P Geom=AllCheck Guess=TCheck SCRF=Check GenChk UPBE1PBE/6-311++G(d,p)
  Freq
 ----------------------------------------------------------------------

 Structure from the checkpoint file:  "1-3-DFB-CAT.chk"
 ----------
 1 3-DFB SP
 ----------
 Charge =  1 Multiplicity = 2

                          Input orientation:
 ---------------------------------------------------------------------
 Center     Atomic      Atomic             Coordinates (Angstroms)
 Number     Number       Type             X           Y           Z
 ---------------------------------------------------------------------
      1          6           0        1.232263    0.711447   -0.000000
      2          6           0        1.219953   -0.672958    0.000000
      3          6           0       -0.041548   -1.369517    0.000000
      4          6           0       -1.263746   -0.729623    0.000000
      5          6           0       -1.206803    0.648783    0.000000
      6          6           0        0.027186    1.392992    0.000000
      7          1           0        2.170599    1.253191   -0.000000
      8          1           0        2.129959   -1.265054    0.000000
      9          1           0       -2.202309   -1.271494   -0.000000
     10          1           0       -0.030594    2.477129    0.000000
     11          9           0        0.009606   -2.663240   -0.000000
     12          9           0       -2.301631    1.339927   -0.000000
 ---------------------------------------------------------------------

 SCF Done:  E(UPBE1PBE) =  -430.040340942     A.U. after    1 cycles

 Alpha  occ. eigenvalues --  -25.02275 -25.02274 -10.58065 -10.58065 -10.49716
 Alpha  occ. eigenvalues --  -10.49716 -10.46682 -10.46227  -1.52018  -1.51967
 Alpha  occ. eigenvalues --   -1.14170  -1.03143  -1.02050  -0.89131  -0.89030
 Alpha  occ. eigenvalues --   -0.82083  -0.78296  -0.75352  -0.74761  -0.74494
 Alpha  occ. eigenvalues --   -0.73022  -0.69062  -0.68251  -0.64298  -0.62067
 Alpha  occ. eigenvalues --   -0.61377  -0.60045  -0.51010  -0.50992
 Alpha virt. eigenvalues --   -0.26172  -0.23767  -0.13784  -0.13527  -0.10699
 Alpha virt. eigenvalues --   -0.10247  -0.10058  -0.09260  -0.08137  -0.07963
 Alpha virt. eigenvalues --   -0.06076  -0.04525  -0.04120  -0.03752  -0.02062

  Beta  occ. eigenvalues --  -25.02032 -25.02032 -10.57766 -10.57766 -10.49108
  Beta  occ. eigenvalues --  -10.49107 -10.46938 -10.46351  -1.51505  -1.51453
  Beta  occ. eigenvalues --   -1.13129  -1.02904  -1.00019  -0.88675  -0.88263
  Beta  occ. eigenvalues --   -0.81850  -0.78007  -0.74923  -0.74188  -0.72615
  Beta  occ. eigenvalues --   -0.71156  -0.68950  -0.68127  -0.63952  -0.61747
  Beta  occ. eigenvalues --   -0.59706  -0.58208  -0.50440
  Beta virt. eigenvalues --   -0.40126  -0.22400  -0.21976  -0.13604  -0.13212
  Beta virt. eigenvalues --   -0.10504  -0.10228  -0.09139  -0.09082  -0.07955
  Beta virt. eigenvalues --   -0.06413  -0.05897  -0.04067  -0.03944  -0.03536

 Mulliken charges and spin densities:
               1          2
     1  C   -0.476333  -0.206999
     2  C    0.306830   0.422367
     3  C   -0.555286   0.220602
     4  C    0.668992  -0.135216
     5  C   -0.555270   0.220630
     6  C    0.306827   0.422332
     7  H    0.306779   0.006957
     8  H    0.334129  -0.025517
     9  H    0.344160   0.001267
    10  H    0.334129  -0.025516
    11  F   -0.007483   0.049544
    12  F   -0.007475   0.049548
 Sum of Mulliken charges =   1.00000   1.00000

 Dipole moment (field-independent basis, Debye):
    X=              0.8374    Y=              0.4835    Z=              0.0000  Tot=              0.9670
 Quadrupole moment (field-independent basis, Debye-Ang):
   XX=            -30.0059   YY=            -31.6908   ZZ=            -42.6778
   XY=              1.4589   XZ=             -0.0000   YZ=             -0.0000

  Exact polarizability:  72.652  -6.886  80.603  -0.000  -0.000  32.037
 Approx polarizability: 111.007 -21.530 135.865  -0.000  -0.000  46.037

                      1                      2                      3
                      A                      A                      A
 Frequencies --    185.8658               199.5652               348.5331
 Red. masses --      8.2187                 3.9476                12.2234
 Frc consts  --      0.1673                 0.0926                 0.8748
 IR Inten    --      2.2476                 0.0000                10.2687

                      4                      5                      6
                      A                      A                      A
 Frequencies --    385.6405               416.3348               491.6746
 Red. masses --      3.0255                 8.7662                 5.0212
 Frc consts  --      0.2651                 0.8953                 0.7152
 IR Inten    --      1.4242                18.3102                 1.7775

                      7                      8                      9
                      A                      A                      A
 Frequencies --    516.7391               582.7729               618.7194
 Red. masses --      9.4428                 1.8710                 4.8637
 Frc consts  --      1.4856                 0.3744                 1.0970
 IR Inten    --      4.0627                21.8001                 0.0000

                     10                     11                     12
                      A                      A                      A
 Frequencies --    743.5652               783.5314               873.2501
 Red. masses --      8.4512                 1.7417                 1.3769
 Frc consts  --      2.7530                 0.6300                 0.6186
 IR Inten    --      3.2381                30.8443                49.6086

                     13                     14                     15
                      A                      A                      A
 Frequencies --    920.2028               938.5958               985.6887
 Red. masses --      1.5129                 2.3106                 1.2981
 Frc consts  --      0.7548                 1.1993                 0.7431
 IR Inten    --      0.0000                 0.7032                 4.3621

                     16                     17                     18
                      A                      A                      A
 Frequencies --    996.0920              1114.4012              1114.7613
 Red. masses --      5.9635                 1.3834                 1.4202
 Frc consts  --      3.4862                 1.0123                 1.0398
 IR Inten    --      0.0626                 4.8728                 4.1170

                     19                     20                     21
                      A                      A                      A
 Frequencies --   1231.0147              1277.5532              1387.7823
 Red. masses --      1.9726                 1.9472                 4.7610
 Frc consts  --      1.7612                 1.8725                 5.4025
 IR Inten    --    101.0708                74.3281                41.4303

                     22                     23                     24
                      A                      A                      A
 Frequencies --   1423.3242              1436.3355              1544.3619
 Red. masses --      1.8531                 5.5448                 4.5951
 Frc consts  --      2.2118                 6.7398                 6.4572
 IR Inten    --     38.4779                 0.6192               680.0171

                     25                     26                     27
                      A                      A                      A
 Frequencies --   1558.4982              1599.8824              3220.1110
 Red. masses --      5.2564                 6.5283                 1.0916
 Frc consts  --      7.5223                 9.8452                 6.6688
 IR Inten    --     43.0139                49.9802                 4.9492

                     28                     29                     30
                      A                      A                      A
 Frequencies --   3223.3724              3239.1742              3240.0657
 Red. masses --      1.0932                 1.0972                 1.0987
 Frc consts  --      6.6925                 6.7826                 6.7961
 IR Inten    --     20.1733                62.4496                 3.8416

 - Thermochemistry -
 -------------------
 Temperature   298.150 Kelvin.  Pressure   1.00000 Atm.
 Atom     1 has atomic number  6 and mass  12.00000

 Molecular mass:   114.02811 amu.
 Principal axes and moments of inertia in atomic units:
                           1         2         3
     Eigenvalues --   487.88888 996.731301484.62018
           X           -0.50000   0.86603  -0.00000
           Y            0.86603   0.50000  -0.00000
           Z            0.00000   0.00000   1.00000
 This molecule is an asymmetric top.
 Rotational symmetry number  1.
 Warning -- assumption of classical behavior for rotation
           may cause significant error
 Rotational temperatures (Kelvin)      0.17753     0.08690     0.05834
 Rotational constants (GHZ):           3.69908     1.81066     1.21562
 Zero-point vibrational energy     218901.1 (Joules/Mol)
                                   52.31862 (Kcal/Mol)
 Warning -- explicit consideration of   9 degrees of freedom as
           vibrations may cause significant error
 Vibrational temperatures:    267.42   287.13   501.46   554.85   599.01
          (Kelvin)            707.41   743.47   838.48   890.20  1069.82
                             1127.33  1256.41  1323.97  1350.43  1418.19
                             1433.15  1603.37  1603.89  1771.16  1838.11
                             1996.71  2047.85  2066.57  2221.99  2242.33
                             2301.87  4633.02  4637.71  4660.45  4661.73

 Zero-point correction=                           0.083375 (Hartree/Particle)
 Thermal correction to Energy=                    0.089613
 Thermal correction to Enthalpy=                  0.090557
 Thermal correction to Gibbs Free Energy=         0.052266
 Sum of electronic and zero-point Energies=           -429.956966
 Sum of electronic and thermal Energies=              -429.950728
 Sum of electronic and thermal Enthalpies=            -429.949784
 Sum of electronic and thermal Free Energies=         -429.988075

                     E (Thermal)             CV                S
                      KCal/Mol        Cal/Mol-Kelvin    Cal/Mol-Kelvin
 Total                   56.233             23.738             80.591
 Electronic               0.000              0.000              1.377
 Translational            0.889              2.981             40.109
 Rotational               0.889              2.981             28.070
 Vibrational             54.456             17.777             11.034
 Vibration     1          0.632              1.859              2.269
 Vibration     2          0.638              1.840              2.137
 Vibration     3          0.726              1.578              1.173
 Vibration     4          0.754              1.501              1.017
 Vibration     5          0.780              1.435              0.905
 Vibration     6          0.847              1.268              0.679
 Vibration     7          0.872              1.213              0.618
 Vibration     8          0.940              1.069              0.480
 Vibration     9          0.979              0.992              0.419

 Optimization completed.
    -- Stationary point found.
 Normal termination of Gaussian 16 at Wed Jan 29 15:59:41 2025.
