 Gaussian 16, Revision A.03,
 Gaussian 16:  ES64L-G16RevA.03 25-Dec-2016

 --------------------------------------------------------
 #p opt freq PBE1PBE/6-311++G(d,p) density=current nosymm
 --------------------------------------------------------

 ----------
 1 3-DFB SP
 ----------
 Symbolic Z-matrix:
 Charge = -1 Multiplicity = 2

 SCF Done:  E(UPBE1PBE) =  -430.356205260     A.U. after   30 cycles
 SCF Done:  E(UPBE1PBE) =  -430.356358320     A.U. after   25 cycles
 SCF Done:  E(UPBE1PBE) =  -430.356379090     A.U. after   23 cycles
 Optimization completed.
    -- Stationary point found.
 Normal termination of Gaussian 16 at Wed Jan 29 15:53:38 2025.

 ----------------------------------------------------------------------
 #P Geom=AllCheck Guess=TCheck SCRF=Check GenChk UPBE1PBE/6-311++G(d,p)
  Freq
 ----------------------------------------------------------------------

 Structure from the checkpoint file:  "1-3-DFB-ANI.chk"
 ----------
 1 3-DFB SP
 ----------
 Charge = -1 Multiplicity = 2

                          Input orientation:
 ---------------------------------------------------------------------
 Center     Atomic      Atomic             Coordinates (Angstroms)
 Number     Number       Type             X           Y           Z
 ---------------------------------------------------------------------
      1          6           0        1.193840    0.689261   -0.000000
      2          6           0        1.211883   -0.700027   -0.000000
      3          6           0       -0.000647   -1.362342    0.000000
      4          6           0       -1.218372   -0.703430    0.000000
      5          6           0       -1.180146    0.680608    0.000000
      6          6           0       -0.000298    1.399533   -0.000000
      7          1           0        2.135160    1.232737    0.000000
      8          1           0        2.145793   -1.254378   -0.000000
      9          1           0       -2.156714   -1.245167    0.000000
     10          1           0       -0.013429    2.485502   -0.000000
     11          9           0       -0.017251   -2.711538   -0.000000
     12          9           0       -2.356885    1.340826   -0.000000
 ---------------------------------------------------------------------

 SCF Done:  E(UPBE1PBE) =  -430.356379090     A.U. after    4 cycles

 Alpha  occ. eigenvalues --  -24.68307 -24.68307 -10.21541 -10.21541 -10.13750
 Alpha  occ. eigenvalues --  -10.13022 -10.12461 -10.12457  -1.16541  -1.16492
 Alpha  occ. eigenvalues --   -0.79754  -0.68549  -0.67717  -0.55132  -0.54633
 Alpha  occ. eigenvalues --   -0.48288  -0.43827  -0.41851  -0.40555  -0.39696
 Alpha  occ. eigenvalues --   -0.38439  -0.35408  -0.35161  -0.30385  -0.29018
 Alpha  occ. eigenvalues --   -0.27181  -0.26976  -0.17085  -0.15854   0.05402
 Alpha virt. eigenvalues --    0.08536   0.08703   0.08771   0.10100   0.10791
 Alpha virt. eigenvalues --    0.13324   0.14275   0.15548   0.17930   0.18335
 Alpha virt. eigenvalues --    0.19183   0.19942   0.20749   0.20992   0.21789

  Beta  occ. eigenvalues --  -24.68306 -24.68305 -10.21545 -10.21544 -10.13741
  Beta  occ. eigenvalues --  -10.12987 -10.12438 -10.12434  -1.16539  -1.16490
  Beta  occ. eigenvalues --   -0.79722  -0.68499  -0.67681  -0.55079  -0.54594
  Beta  occ. eigenvalues --   -0.48237  -0.43809  -0.41759  -0.40512  -0.39693
  Beta  occ. eigenvalues --   -0.38439  -0.35346  -0.35094  -0.30328  -0.28970
  Beta  occ. eigenvalues --   -0.27151  -0.26891  -0.17053  -0.15833
  Beta virt. eigenvalues --    0.08831   0.09402   0.10135   0.10918   0.11523
  Beta virt. eigenvalues --    0.13095   0.14463   0.15867   0.16033   0.18781
  Beta virt. eigenvalues --    0.18787   0.19533   0.20568   0.21734   0.22775

 Mulliken charges and spin densities:
               1          2
     1  C    4.665102  -5.050142
     2  C   -1.325663   1.506198
     3  C    1.230013  -1.915445
     4  C   -1.483816   2.100543
     5  C    1.230596  -1.915997
     6  C   -1.325822   1.506344
     7  H   -1.564713   1.865120
     8  H   -1.101642   1.380285
     9  H    0.133442   0.113286
    10  H   -1.102228   1.380893
    11  F   -0.177630   0.014450
    12  F   -0.177638   0.014465
 Sum of Mulliken charges =  -1.00000   1.00000

 Dipole moment (field-independent basis, Debye):
    X=             -8.3491    Y=             -4.8221    Z=             -0.0000  Tot=              9.6415
 Quadrupole moment (field-independent basis, Debye-Ang):
   XX=            -95.8592   YY=            -91.7621   ZZ=            -64.8025
   XY=             -3.5554   XZ=             -0.0000   YZ=             -0.0000

  Exact polarizability:1847.463-560.9922475.596   0.026   0.201 228.598
 Approx polarizability:1197.821-401.9591661.931  -0.000  -0.000 179.665

                      1                      2                      3
                      A                      A                      A
 Frequencies --    160.8819               231.4655               315.1242
 Red. masses --      3.9829                 4.3190                 4.7690
 Frc consts  --      0.0607                 0.1363                 0.2790
 IR Inten    --    154.0548                 0.0005               476.6547

                      4                      5                      6
                      A                      A                      A
 Frequencies --    328.9466               478.7032               512.6252
 Red. masses --     12.9065                 4.8966                 8.1221
 Frc consts  --      0.8228                 0.6611                 1.2575
 IR Inten    --      4.3957                78.2173               243.1911

                      7                      8                      9
                      A                      A                      A
 Frequencies --    525.9859               595.6376               672.9108
 Red. masses --      9.2665                 4.9226                 2.0381
 Frc consts  --      1.5105                 1.0290                 0.5438
 IR Inten    --      1.4356                 0.0660               147.2006

                     10                     11                     12
                      A                      A                      A
 Frequencies --    731.2065               824.2867               881.3010
 Red. masses --      8.3324                 1.2379                 2.0121
 Frc consts  --      2.6248                 0.4955                 0.9208
 IR Inten    --    266.5612               924.4157              1417.0559

                     13                     14                     15
                      A                      A                      A
 Frequencies --    912.0703               970.9182               988.0263
 Red. masses --      1.4575                 2.9146                 1.2474
 Frc consts  --      0.7143                 1.6188                 0.7174
 IR Inten    --      0.0075                38.3391                22.7324

                     16                     17                     18
                      A                      A                      A
 Frequencies --   1008.2751              1089.6307              1126.7949
 Red. masses --      6.1059                 1.4411                 1.5143
 Frc consts  --      3.6573                 1.0081                 1.1328
 IR Inten    --    235.4936               112.9745               337.2780

                     19                     20                     21
                      A                      A                      A
 Frequencies --   1174.5301              1287.8637              1295.9121
 Red. masses --      1.2306                 1.4873                 5.7693
 Frc consts  --      1.0002                 1.4534                 5.7085
 IR Inten    --    170.6507                71.3794                26.0095

                     22                     23                     24
                      A                      A                      A
 Frequencies --   1383.1507              1485.4370              1527.1271
 Red. masses --      7.7292                 3.7014                 2.9206
 Frc consts  --      8.7121                 4.8120                 4.0130
 IR Inten    --      0.0134               161.1762               318.7711

                     25                     26                     27
                      A                      A                      A
 Frequencies --   1670.4103              1676.7411              3156.5390
 Red. masses --      7.1344                 8.3803                 1.0970
 Frc consts  --     11.7288                13.8816                 6.4402
 IR Inten    --     26.3883               126.4975               334.2540

                     28                     29                     30
                      A                      A                      A
 Frequencies --   3175.8986              3182.4921              3222.1712
 Red. masses --      1.0894                 1.0931                 1.0936
 Frc consts  --      6.4741                 6.5229                 6.6897
 IR Inten    --     42.1221               100.0631                63.6116

 - Thermochemistry -
 -------------------
 Temperature   298.150 Kelvin.  Pressure   1.00000 Atm.
 Atom     1 has atomic number  6 and mass  12.00000

 Molecular mass:   114.02811 amu.
 Principal axes and moments of inertia in atomic units:
                           1         2         3
     Eigenvalues --   481.207571021.474431502.68201
           X           -0.50000   0.86603  -0.00000
           Y            0.86603   0.50000  -0.00000
           Z           -0.00000   0.00000   1.00000
 This molecule is an asymmetric top.
 Rotational symmetry number  1.
 Warning -- assumption of classical behavior for rotation
           may cause significant error
 Rotational temperatures (Kelvin)      0.17999     0.08479     0.05764
 Rotational constants (GHZ):           3.75044     1.76680     1.20101
 Zero-point vibrational energy     218875.1 (Joules/Mol)
                                   52.31241 (Kcal/Mol)
 Warning -- explicit consideration of   8 degrees of freedom as
           vibrations may cause significant error
 Vibrational temperatures:    231.47   333.03   453.39   473.28   688.75
          (Kelvin)            737.55   756.78   856.99   968.17  1052.04
                             1185.96  1268.00  1312.27  1396.93  1421.55
                             1450.68  1567.74  1621.21  1689.89  1852.95
                             1864.53  1990.05  2137.21  2197.20  2403.35
                             2412.46  4541.56  4569.41  4578.90  4635.99

 Zero-point correction=                           0.083365 (Hartree/Particle)
 Thermal correction to Energy=                    0.089579
 Thermal correction to Enthalpy=                  0.090523
 Thermal correction to Gibbs Free Energy=         0.052211
 Sum of electronic and zero-point Energies=           -430.273014
 Sum of electronic and thermal Energies=              -430.266800
 Sum of electronic and thermal Enthalpies=            -430.265856
 Sum of electronic and thermal Free Energies=         -430.304168

                     E (Thermal)             CV                S
                      KCal/Mol        Cal/Mol-Kelvin    Cal/Mol-Kelvin
 Total                   56.212             23.516             80.635
 Electronic               0.000              0.000              1.377
 Translational            0.889              2.981             40.109
 Rotational               0.889              2.981             28.093
 Vibrational             54.434             17.555             11.055
 Vibration     1          0.622              1.890              2.539
 Vibration     2          0.653              1.793              1.868
 Vibration     3          0.702              1.645              1.335
 Vibration     4          0.712              1.618              1.265
 Vibration     5          0.835              1.297              0.714
 Vibration     6          0.868              1.222              0.627
 Vibration     7          0.881              1.192              0.596
 Vibration     8          0.953              1.041              0.457

 Optimization completed.
    -- Stationary point found.
 Normal termination of Gaussian 16 at Wed Jan 29 16:00:02 2025.
