 Gaussian 16, Revision A.03,
 Gaussian 16:  ES64L-G16RevA.03 25-Dec-2016

 --------------------------------------------------------
 #p opt freq PBE1PBE/6-311++G(d,p) density=current nosymm
 --------------------------------------------------------

 ---------------
 1 2 3 4 TtFB SP
 ---------------
 Symbolic Z-matrix:
 Charge =  1 Multiplicity = 2

 SCF Done:  E(UPBE1PBE) =  -628.356567446     A.U. after   15 cycles
 SCF Done:  E(UPBE1PBE) =  -628.367297956     A.U. after   13 cycles
 SCF Done:  E(UPBE1PBE) =  -628.367950211     A.U. after   11 cycles
 SCF Done:  E(UPBE1PBE) =  -628.367965311     A.U. after   10 cycles
 SCF Done:  E(UPBE1PBE) =  -628.367966812     A.U. after    9 cycles
 Optimization completed.
    -- Stationary point found.
 Normal termination of Gaussian 16 at Wed Jan 29 14:48:17 2025.

 ----------------------------------------------------------------------
 #P Geom=AllCheck Guess=TCheck SCRF=Check GenChk UPBE1PBE/6-311++G(d,p)
  Freq
 ----------------------------------------------------------------------

 Structure from the checkpoint file:  "1-2-3-4-TtFB-CAT.chk"
 ---------------
 1 2 3 4 TtFB SP
 ---------------
 Charge =  1 Multiplicity = 2

                          Input orientation:
 ---------------------------------------------------------------------
 Center     Atomic      Atomic             Coordinates (Angstroms)
 Number     Number       Type             X           Y           Z
 ---------------------------------------------------------------------
      1          6           0        1.239178    0.680437    0.000000
      2          6           0        1.239178   -0.680437    0.000000
      3          6           0       -0.005453   -1.363357   -0.000000
      4          6           0       -1.258526   -0.685283    0.000000
      5          6           0       -1.258526    0.685283    0.000000
      6          6           0       -0.005453    1.363357    0.000000
      7          1           0        2.151544    1.267148   -0.000000
      8          1           0        2.151544   -1.267148   -0.000000
      9          9           0       -0.027423   -2.648927   -0.000000
     10          9           0       -2.356385   -1.375223    0.000000
     11          9           0       -2.356385    1.375223   -0.000000
     12          9           0       -0.027423    2.648927   -0.000000
 ---------------------------------------------------------------------

 SCF Done:  E(UPBE1PBE) =  -628.367966812     A.U. after    1 cycles

 Alpha  occ. eigenvalues --  -25.04737 -25.04736 -25.02052 -25.02052 -10.60372
 Alpha  occ. eigenvalues --  -10.60370 -10.57446 -10.57378 -10.49237 -10.49162
 Alpha  occ. eigenvalues --   -1.54862  -1.54771  -1.52037  -1.50775  -1.15993
 Alpha  occ. eigenvalues --   -1.04619  -1.03472  -0.91885  -0.91871  -0.84569
 Alpha  occ. eigenvalues --   -0.82891  -0.82786  -0.79190  -0.78080  -0.77075
 Alpha  occ. eigenvalues --   -0.76257  -0.73007  -0.71494  -0.70736  -0.70440
 Alpha  occ. eigenvalues --   -0.67677  -0.66445  -0.62266  -0.61964  -0.61204
 Alpha  occ. eigenvalues --   -0.50981  -0.50919
 Alpha virt. eigenvalues --   -0.26874  -0.24650  -0.19103  -0.13795  -0.12219
 Alpha virt. eigenvalues --   -0.09403  -0.09332  -0.09225  -0.08585  -0.07703
 Alpha virt. eigenvalues --   -0.05959  -0.04920  -0.04410  -0.04100  -0.03758

  Beta  occ. eigenvalues --  -25.04368 -25.04368 -25.02007 -25.02006 -10.59751
  Beta  occ. eigenvalues --  -10.59751 -10.57443 -10.57374 -10.49175 -10.49099
  Beta  occ. eigenvalues --   -1.54140  -1.54009  -1.51880  -1.50649  -1.15022
  Beta  occ. eigenvalues --   -1.04420  -1.01673  -0.91352  -0.91260  -0.84276
  Beta  occ. eigenvalues --   -0.82593  -0.82527  -0.78843  -0.76844  -0.76105
  Beta  occ. eigenvalues --   -0.73558  -0.71752  -0.71408  -0.70411  -0.69873
  Beta  occ. eigenvalues --   -0.67562  -0.66160  -0.61903  -0.61723  -0.58411
  Beta  occ. eigenvalues --   -0.50412
  Beta virt. eigenvalues --   -0.40739  -0.23184  -0.22694  -0.18746  -0.13682
  Beta virt. eigenvalues --   -0.11866  -0.09157  -0.09027  -0.08469  -0.07552
  Beta virt. eigenvalues --   -0.07177  -0.05703  -0.04867  -0.04064  -0.03865

 Mulliken charges and spin densities:
               1          2
     1  C    0.171432   0.033592
     2  C    0.171432   0.033592
     3  C   -0.121493   0.390929
     4  C    0.222157  -0.006415
     5  C    0.222157  -0.006415
     6  C   -0.121493   0.390929
     7  H    0.334259  -0.005688
     8  H    0.334259  -0.005688
     9  F   -0.009782   0.075438
    10  F   -0.096573   0.012144
    11  F   -0.096573   0.012144
    12  F   -0.009782   0.075438
 Sum of Mulliken charges =   1.00000   1.00000

 Dipole moment (field-independent basis, Debye):
    X=              2.0136    Y=              0.0000    Z=              0.0000  Tot=              2.0136
 Quadrupole moment (field-independent basis, Debye-Ang):
   XX=            -41.2599   YY=            -43.1244   ZZ=            -49.8281
   XY=             -0.0000   XZ=             -0.0000   YZ=              0.0000

  Exact polarizability:  72.114   0.000  92.907   0.000   0.000  32.232
 Approx polarizability: 106.329  -0.000 162.480   0.000   0.000  46.193

                      1                      2                      3
                      A                      A                      A
 Frequencies --    128.0373               133.2577               267.3718
 Red. masses --     10.4067                17.3738                16.3470
 Frc consts  --      0.1005                 0.1818                 0.6885
 IR Inten    --      3.8281                 0.0000                 0.1606

                      4                      5                      6
                      A                      A                      A
 Frequencies --    274.0988               291.5114               323.0200
 Red. masses --     18.5920                 7.5467                 5.0717
 Frc consts  --      0.8230                 0.3778                 0.3118
 IR Inten    --      0.1562                 1.8924                 0.0000

                      7                      8                      9
                      A                      A                      A
 Frequencies --    344.1933               408.1199               452.9046
 Red. masses --     16.0643                12.8003                13.8815
 Frc consts  --      1.1213                 1.2562                 1.6776
 IR Inten    --      5.9189                16.0180                 0.8514

                     10                     11                     12
                      A                      A                      A
 Frequencies --    557.7780               601.2165               612.5539
 Red. masses --      7.2677                 3.2091                 4.7605
 Frc consts  --      1.3322                 0.6834                 1.0524
 IR Inten    --      0.0000                 4.9389                 0.0102

                     13                     14                     15
                      A                      A                      A
 Frequencies --    622.7387               691.3367               746.6068
 Red. masses --     11.2926                 9.8102                 9.6509
 Frc consts  --      2.5802                 2.7625                 3.1696
 IR Inten    --      0.0000                21.4050                17.2875

                     16                     17                     18
                      A                      A                      A
 Frequencies --    823.2021               971.6929              1020.5799
 Red. masses --      1.6537                 1.2476                 5.8522
 Frc consts  --      0.6603                 0.6941                 3.5914
 IR Inten    --     54.2914                 0.0000                12.1404

                     19                     20                     21
                      A                      A                      A
 Frequencies --   1107.4677              1231.9587              1242.3202
 Red. masses --      1.7046                 2.4529                 3.0660
 Frc consts  --      1.2318                 2.1934                 2.7879
 IR Inten    --     58.1841                66.8110                11.3967

                     22                     23                     24
                      A                      A                      A
 Frequencies --   1355.6703              1398.5780              1412.5384
 Red. masses --      2.7166                 9.9269                12.2777
 Frc consts  --      2.9416                11.4403                14.4334
 IR Inten    --     73.4494                17.4114               289.7478

                     25                     26                     27
                      A                      A                      A
 Frequencies --   1471.7340              1511.9650              1630.5327
 Red. masses --     10.1979                 4.7057                 8.5072
 Frc consts  --     13.0143                 6.3381                13.3258
 IR Inten    --      5.3975               769.0756               196.7011

                     28                     29                     30
                      A                      A                      A
 Frequencies --   1723.3880              3225.1437              3235.6165
 Red. masses --      9.4651                 1.0914                 1.1005
 Frc consts  --     16.5631                 6.6883                 6.7881
 IR Inten    --     58.5293                 9.0646                52.5776

 - Thermochemistry -
 -------------------
 Temperature   298.150 Kelvin.  Pressure   1.00000 Atm.
 Atom     1 has atomic number  6 and mass  12.00000

 Molecular mass:   150.00926 amu.
 Principal axes and moments of inertia in atomic units:
                           1         2         3
     Eigenvalues --   874.695421459.517272334.21268
           X            0.00000   1.00000  -0.00000
           Y            1.00000  -0.00000   0.00000
           Z           -0.00000   0.00000   1.00000
 This molecule is an asymmetric top.
 Rotational symmetry number  1.
 Warning -- assumption of classical behavior for rotation
           may cause significant error
 Rotational temperatures (Kelvin)      0.09902     0.05934     0.03711
 Rotational constants (GHZ):           2.06328     1.23653     0.77317
 Zero-point vibrational energy     178346.1 (Joules/Mol)
                                   42.62573 (Kcal/Mol)
 Warning -- explicit consideration of  12 degrees of freedom as
           vibrations may cause significant error
 Vibrational temperatures:    184.22   191.73   384.69   394.37   419.42
          (Kelvin)            464.75   495.22   587.19   651.63   802.52
                              865.02   881.33   895.98   994.68  1074.20
                             1184.40  1398.05  1468.39  1593.40  1772.51
                             1787.42  1950.51  2012.24  2032.33  2117.50
                             2175.38  2345.97  2479.57  4640.26  4655.33

 Zero-point correction=                           0.067928 (Hartree/Particle)
 Thermal correction to Energy=                    0.075881
 Thermal correction to Enthalpy=                  0.076825
 Thermal correction to Gibbs Free Energy=         0.034298
 Sum of electronic and zero-point Energies=           -628.300038
 Sum of electronic and thermal Energies=              -628.292086
 Sum of electronic and thermal Enthalpies=            -628.291141
 Sum of electronic and thermal Free Energies=         -628.333668

                     E (Thermal)             CV                S
                      KCal/Mol        Cal/Mol-Kelvin    Cal/Mol-Kelvin
 Total                   47.616             29.285             89.505
 Electronic               0.000              0.000              1.377
 Translational            0.889              2.981             40.927
 Rotational               0.889              2.981             29.478
 Vibrational             45.839             23.323             17.723
 Vibration     1          0.611              1.925              2.975
 Vibration     2          0.613              1.920              2.898
 Vibration     3          0.672              1.733              1.613
 Vibration     4          0.676              1.721              1.570
 Vibration     5          0.687              1.690              1.465
 Vibration     6          0.708              1.629              1.295
 Vibration     7          0.723              1.587              1.193
 Vibration     8          0.773              1.453              0.933
 Vibration     9          0.811              1.354              0.787
 Vibration    10          0.913              1.123              0.528
 Vibration    11          0.959              1.029              0.448
 Vibration    12          0.972              1.005              0.429

 Optimization completed.
    -- Stationary point found.
 Normal termination of Gaussian 16 at Wed Jan 29 14:58:59 2025.
