 Gaussian 16, Revision A.03,
 Gaussian 16:  ES64L-G16RevA.03 25-Dec-2016

 -----------------------------------------------
 #p PBE1PBE/6-311++G(d,p) density=current nosymm
 -----------------------------------------------

 ---------------
 1 2 3 4 TtFB SP
 ---------------
 Symbolic Z-matrix:
 Charge =  0 Multiplicity = 1

                          Input orientation:
 ---------------------------------------------------------------------
 Center     Atomic      Atomic             Coordinates (Angstroms)
 Number     Number       Type             X           Y           Z
 ---------------------------------------------------------------------
      1          6           0        1.201667    0.694892    0.000000
      2          6           0        1.201667   -0.694892   -0.000000
      3          6           0        0.001303   -1.378116   -0.000000
      4          6           0       -1.206485   -0.693845    0.000000
      5          6           0       -1.206485    0.693845    0.000000
      6          6           0        0.001303    1.378116    0.000000
      7          1           0        2.127300    1.257269   -0.000000
      8          1           0        2.127300   -1.257269    0.000000
      9          9           0       -0.023362   -2.710830    0.000000
     10          9           0       -2.357488   -1.351101   -0.000000
     11          9           0       -2.357488    1.351101    0.000000
     12          9           0       -0.023362    2.710830   -0.000000
 ---------------------------------------------------------------------

 SCF Done:  E(RPBE1PBE) =  -628.713528602     A.U. after   13 cycles

 Alpha  occ. eigenvalues --  -24.81865 -24.81865 -24.81119 -24.81119 -10.35182
 Alpha  occ. eigenvalues --  -10.35122 -10.34585 -10.34584 -10.26999 -10.26938
 Alpha  occ. eigenvalues --   -1.31525  -1.30481  -1.29451  -1.29104  -0.93868
 Alpha  occ. eigenvalues --   -0.82306  -0.81485  -0.70146  -0.69511  -0.62850
 Alpha  occ. eigenvalues --   -0.60781  -0.60630  -0.57548  -0.55310  -0.54909
 Alpha  occ. eigenvalues --   -0.52357  -0.50722  -0.49930  -0.49711  -0.49418
 Alpha  occ. eigenvalues --   -0.47052  -0.44781  -0.41540  -0.41396  -0.39369
 Alpha  occ. eigenvalues --   -0.29536  -0.28326
 Alpha virt. eigenvalues --   -0.03883  -0.02514  -0.01431  -0.00020   0.02029
 Alpha virt. eigenvalues --    0.04984   0.05629   0.06007   0.07571   0.08604
 Alpha virt. eigenvalues --    0.08950   0.09191   0.09221   0.11042   0.11872

 Mulliken charges:
               1
     1  C    0.181726
     2  C    0.181726
     3  C   -0.266277
     4  C    0.173654
     5  C    0.173654
     6  C   -0.266277
     7  H    0.256041
     8  H    0.256041
     9  F   -0.164207
    10  F   -0.180936
    11  F   -0.180936
    12  F   -0.164207
 Sum of Mulliken charges =  -0.00000

 Dipole moment (field-independent basis, Debye):
    X=              2.6195    Y=              0.0000    Z=             -0.0000  Tot=              2.6195
 Quadrupole moment (field-independent basis, Debye-Ang):
   XX=            -53.0341   YY=            -60.7867   ZZ=            -53.7096
   XY=             -0.0000   XZ=             -0.0000   YZ=             -0.0000

 Normal termination of Gaussian 16 at Tue Jan 14 13:31:29 2025.
