 Gaussian 16, Revision A.03,
 Gaussian 16:  ES64L-G16RevA.03 25-Dec-2016

 --------------------------------------------------------
 #p opt freq PBE1PBE/6-311++G(d,p) density=current nosymm
 --------------------------------------------------------

 ---------------
 1 2 3 4 TtFB SP
 ---------------
 Symbolic Z-matrix:
 Charge = -1 Multiplicity = 2

 SCF Done:  E(UPBE1PBE) =  -628.693691844     A.U. after   25 cycles
 SCF Done:  E(UPBE1PBE) =  -628.693925741     A.U. after   19 cycles
 SCF Done:  E(UPBE1PBE) =  -628.693943718     A.U. after   18 cycles
 Optimization completed.
    -- Stationary point found.
 Normal termination of Gaussian 16 at Wed Jan 29 14:48:29 2025.

 ----------------------------------------------------------------------
 #P Geom=AllCheck Guess=TCheck SCRF=Check GenChk UPBE1PBE/6-311++G(d,p)
  Freq
 ----------------------------------------------------------------------

 Structure from the checkpoint file:  "1-2-3-4-TtFB-ANI.chk"
 ---------------
 1 2 3 4 TtFB SP
 ---------------
 Charge = -1 Multiplicity = 2

                          Input orientation:
 ---------------------------------------------------------------------
 Center     Atomic      Atomic             Coordinates (Angstroms)
 Number     Number       Type             X           Y           Z
 ---------------------------------------------------------------------
      1          6           0        1.204721    0.694203    0.000000
      2          6           0        1.204721   -0.694203   -0.000000
      3          6           0        0.002677   -1.374952   -0.000000
      4          6           0       -1.204684   -0.692342    0.000000
      5          6           0       -1.204684    0.692342   -0.000000
      6          6           0        0.002677    1.374952    0.000000
      7          1           0        2.133883    1.249209    0.000000
      8          1           0        2.133883   -1.249209   -0.000000
      9          9           0       -0.030603   -2.712338   -0.000000
     10          9           0       -2.363060   -1.357392   -0.000000
     11          9           0       -2.363060    1.357392   -0.000000
     12          9           0       -0.030603    2.712338   -0.000000
 ---------------------------------------------------------------------

 SCF Done:  E(UPBE1PBE) =  -628.693943718     A.U. after    2 cycles

 Alpha  occ. eigenvalues --  -24.71030 -24.71030 -24.69563 -24.69563 -10.23645
 Alpha  occ. eigenvalues --  -10.23583 -10.22789 -10.22788 -10.14470 -10.14408
 Alpha  occ. eigenvalues --   -1.20271  -1.19136  -1.17783  -1.17583  -0.82095
 Alpha  occ. eigenvalues --   -0.70466  -0.69710  -0.58367  -0.57882  -0.51478
 Alpha  occ. eigenvalues --   -0.49160  -0.49118  -0.46093  -0.44040  -0.43034
 Alpha  occ. eigenvalues --   -0.41012  -0.39310  -0.38574  -0.37907  -0.37623
 Alpha  occ. eigenvalues --   -0.35810  -0.32958  -0.30391  -0.29365  -0.27649
 Alpha  occ. eigenvalues --   -0.17905  -0.16633   0.05320
 Alpha virt. eigenvalues --    0.08035   0.08199   0.09215   0.09345   0.13047
 Alpha virt. eigenvalues --    0.13979   0.14877   0.16528   0.17209   0.17886
 Alpha virt. eigenvalues --    0.18021   0.18448   0.20244   0.21147   0.21781

  Beta  occ. eigenvalues --  -24.71022 -24.71022 -24.69561 -24.69560 -10.23638
  Beta  occ. eigenvalues --  -10.23576 -10.22792 -10.22791 -10.14438 -10.14376
  Beta  occ. eigenvalues --   -1.20249  -1.19116  -1.17773  -1.17571  -0.82048
  Beta  occ. eigenvalues --   -0.70408  -0.69686  -0.58326  -0.57852  -0.51433
  Beta  occ. eigenvalues --   -0.49143  -0.49084  -0.46072  -0.44010  -0.42982
  Beta  occ. eigenvalues --   -0.40994  -0.39295  -0.38563  -0.37818  -0.37559
  Beta  occ. eigenvalues --   -0.35782  -0.32892  -0.30374  -0.29292  -0.27605
  Beta  occ. eigenvalues --   -0.17860  -0.16604
  Beta virt. eigenvalues --    0.08090   0.08706   0.09264   0.10936   0.11788
  Beta virt. eigenvalues --    0.14583   0.15056   0.15659   0.17967   0.18186
  Beta virt. eigenvalues --    0.18703   0.18719   0.19018   0.20914   0.21952

 Mulliken charges and spin densities:
               1          2
     1  C    1.670576  -1.478680
     2  C    1.670576  -1.478680
     3  C    0.910487  -1.208547
     4  C   -0.701285   0.873123
     5  C   -0.701285   0.873123
     6  C    0.910486  -1.208546
     7  H   -2.014479   2.327519
     8  H   -2.014479   2.327519
     9  F   -0.182770   0.011092
    10  F   -0.182529  -0.024508
    11  F   -0.182529  -0.024508
    12  F   -0.182770   0.011092
 Sum of Mulliken charges =  -1.00000   1.00000

 Dipole moment (field-independent basis, Debye):
    X=             -9.5900    Y=              0.0000    Z=             -0.0000  Tot=              9.5900
 Quadrupole moment (field-independent basis, Debye-Ang):
   XX=           -117.2877   YY=            -92.5032   ZZ=            -72.5861
   XY=              0.0000   XZ=             -0.0000   YZ=              0.0000

  Exact polarizability:1353.098   0.0001722.668  -0.000  -0.000 267.197
 Approx polarizability: 965.511   0.0001210.633  -0.000  -0.000 210.185

 ******    1 imaginary frequencies (negative Signs) ******

                      1                      2                      3
                      A                      A                      A
 Frequencies --   -150.4973               161.4065               163.2079
 Red. masses --      8.3531                16.7383                 9.5339
 Frc consts  --      0.1115                 0.2569                 0.1496
 IR Inten    --   1030.8206                 0.0000                39.4275

                      4                      5                      6
                      A                      A                      A
 Frequencies --    274.0314               281.1518               300.9822
 Red. masses --     18.7141                17.5275                 6.4976
 Frc consts  --      0.8280                 0.8163                 0.3468
 IR Inten    --      8.4792                11.5122               152.2843

                      7                      8                      9
                      A                      A                      A
 Frequencies --    321.1973               380.8098               461.6162
 Red. masses --     15.9818                 7.2955                14.3223
 Frc consts  --      0.9714                 0.6233                 1.7981
 IR Inten    --    102.4960                 0.0000                11.7155

                     10                     11                     12
                      A                      A                      A
 Frequencies --    487.4616               606.1103               610.4449
 Red. masses --     12.5621                 3.6365                 5.0982
 Frc consts  --      1.7587                 0.7871                 1.1193
 IR Inten    --     35.1754                 0.0000                 4.8210

                     13                     14                     15
                      A                      A                      A
 Frequencies --    695.4062               736.2249               766.9897
 Red. masses --     10.1895                 9.0914                 6.1367
 Frc consts  --      2.9032                 2.9034                 2.1270
 IR Inten    --     15.4051               489.6523                 0.0000

                     16                     17                     18
                      A                      A                      A
 Frequencies --    914.9826               995.7376              1003.6242
 Red. masses --      1.3043                 7.0608                 1.5430
 Frc consts  --      0.6434                 4.1247                 0.9157
 IR Inten    --   3143.1402                 3.6707                 0.0000

                     19                     20                     21
                      A                      A                      A
 Frequencies --   1066.8619              1183.4210              1253.4345
 Red. masses --      2.4927                 1.8386                 2.7132
 Frc consts  --      1.6716                 1.5171                 2.5115
 IR Inten    --    338.0053               737.8253                30.5821

                     22                     23                     24
                      A                      A                      A
 Frequencies --   1276.2137              1359.0857              1363.7992
 Red. masses --      2.8915                 7.2342                 9.4534
 Frc consts  --      2.7748                 7.8729                10.3595
 IR Inten    --     95.4191               451.8011               567.6468

                     25                     26                     27
                      A                      A                      A
 Frequencies --   1531.3322              1549.9409              1688.7728
 Red. masses --      8.2570                 4.5619                 9.1844
 Frc consts  --     11.4080                 6.4569                15.4328
 IR Inten    --   2806.6329               366.7375               682.2039

                     28                     29                     30
                      A                      A                      A
 Frequencies --   1689.2540              3188.2691              3225.6142
 Red. masses --     10.5702                 1.0965                 1.0908
 Frc consts  --     17.7715                 6.5672                 6.6870
 IR Inten    --    129.9336              8865.1007               343.8353

 - Thermochemistry -
 -------------------
 Temperature   298.150 Kelvin.  Pressure   1.00000 Atm.
 Atom     1 has atomic number  6 and mass  12.00000

 Molecular mass:   150.00926 amu.
 Principal axes and moments of inertia in atomic units:
                           1         2         3
     Eigenvalues --   860.897601503.886342364.78394
           X           -0.00000   1.00000   0.00000
           Y            1.00000   0.00000   0.00000
           Z           -0.00000  -0.00000   1.00000
 This molecule is an asymmetric top.
 Rotational symmetry number  1.
 Warning -- assumption of classical behavior for rotation
           may cause significant error
 Rotational temperatures (Kelvin)      0.10061     0.05759     0.03663
 Rotational constants (GHZ):           2.09635     1.20005     0.76317
    1 imaginary frequencies ignored.
 Zero-point vibrational energy     176672.8 (Joules/Mol)
                                   42.22581 (Kcal/Mol)
 Warning -- explicit consideration of  11 degrees of freedom as
           vibrations may cause significant error
 Vibrational temperatures:    232.23   234.82   394.27   404.51   433.05
          (Kelvin)            462.13   547.90   664.16   701.35   872.06
                              878.29  1000.53  1059.26  1103.53  1316.46
                             1432.64  1443.99  1534.98  1702.68  1803.41
                             1836.19  1955.42  1962.20  2203.25  2230.02
                             2429.77  2430.46  4587.21  4640.94

 Zero-point correction=                           0.067291 (Hartree/Particle)
 Thermal correction to Energy=                    0.074735
 Thermal correction to Enthalpy=                  0.075679
 Thermal correction to Gibbs Free Energy=         0.034148
 Sum of electronic and zero-point Energies=           -628.626653
 Sum of electronic and thermal Energies=              -628.619208
 Sum of electronic and thermal Enthalpies=            -628.618264
 Sum of electronic and thermal Free Energies=         -628.659796

                     E (Thermal)             CV                S
                      KCal/Mol        Cal/Mol-Kelvin    Cal/Mol-Kelvin
 Total                   46.897             27.473             87.411
 Electronic               0.000              0.000              1.377
 Translational            0.889              2.981             40.927
 Rotational               0.889              2.981             29.505
 Vibrational             45.120             21.511             15.601
 Vibration     1          0.622              1.890              2.533
 Vibration     2          0.623              1.888              2.512
 Vibration     3          0.676              1.721              1.571
 Vibration     4          0.681              1.709              1.527
 Vibration     5          0.693              1.672              1.411
 Vibration     6          0.707              1.633              1.304
 Vibration     7          0.751              1.511              1.036
 Vibration     8          0.819              1.335              0.761
 Vibration     9          0.843              1.278              0.690
 Vibration    10          0.965              1.019              0.439
 Vibration    11          0.969              1.010              0.432

 Optimization completed.
    -- Stationary point found.
 Normal termination of Gaussian 16 at Wed Jan 29 14:59:44 2025.
