 Gaussian 16, Revision A.03,
 Gaussian 16:  ES64L-G16RevA.03 25-Dec-2016

 --------------------------------------------------------
 #p opt freq PBE1PBE/6-311++G(d,p) density=current nosymm
 --------------------------------------------------------

 ------
 MFB SP
 ------
 Symbolic Z-matrix:
 Charge = -1 Multiplicity = 2

 SCF Done:  E(UPBE1PBE) =  -331.177449580     A.U. after   25 cycles
 SCF Done:  E(UPBE1PBE) =  -331.177550614     A.U. after   21 cycles
 SCF Done:  E(UPBE1PBE) =  -331.177560129     A.U. after   20 cycles
 Optimization completed.
    -- Stationary point found.
 Normal termination of Gaussian 16 at Wed Jan 29 15:37:19 2025.

 ----------------------------------------------------------------------
 #P Geom=AllCheck Guess=TCheck SCRF=Check GenChk UPBE1PBE/6-311++G(d,p)
  Freq
 ----------------------------------------------------------------------

 Structure from the checkpoint file:  "MFB-ANI.chk"
 ------
 MFB SP
 ------
 Charge = -1 Multiplicity = 2

                          Input orientation:
 ---------------------------------------------------------------------
 Center     Atomic      Atomic             Coordinates (Angstroms)
 Number     Number       Type             X           Y           Z
 ---------------------------------------------------------------------
      1          6           0        1.202860    0.691056   -0.000000
      2          6           0        1.212683   -0.699548   -0.000000
      3          6           0       -0.000000   -1.363652   -0.000000
      4          6           0       -1.212683   -0.699548    0.000000
      5          6           0       -1.202860    0.691056   -0.000000
      6          6           0        0.000000    1.386089    0.000000
      7          1           0        2.146409    1.232678   -0.000000
      8          1           0        2.142865   -1.261241    0.000000
      9          1           0       -2.142865   -1.261241    0.000000
     10          1           0       -2.146409    1.232678   -0.000000
     11          1           0       -0.000000    2.473729    0.000000
     12          9           0        0.000000   -2.718889    0.000000
 ---------------------------------------------------------------------

 SCF Done:  E(UPBE1PBE) =  -331.177560129     A.U. after    2 cycles

 Alpha  occ. eigenvalues --  -24.67322 -10.20046 -10.12189 -10.12187 -10.11988
 Alpha  occ. eigenvalues --  -10.11987 -10.11114  -1.15360  -0.78160  -0.67137
 Alpha  occ. eigenvalues --   -0.66234  -0.53240  -0.52345  -0.45577  -0.40024
 Alpha  occ. eigenvalues --   -0.39652  -0.38065  -0.34683  -0.33421  -0.30886
 Alpha  occ. eigenvalues --   -0.26955  -0.26816  -0.24804  -0.16345  -0.15033
 Alpha  occ. eigenvalues --    0.05209
 Alpha virt. eigenvalues --    0.07768   0.08841   0.09537   0.10449   0.10744
 Alpha virt. eigenvalues --    0.11113   0.14731   0.16305   0.18271   0.18761
 Alpha virt. eigenvalues --    0.19176   0.19897   0.20700   0.21081   0.21593

  Beta  occ. eigenvalues --  -24.67318 -10.20047 -10.12178 -10.12177 -10.11965
  Beta  occ. eigenvalues --  -10.11963 -10.11093  -1.15353  -0.78121  -0.67091
  Beta  occ. eigenvalues --   -0.66186  -0.53177  -0.52297  -0.45501  -0.39934
  Beta  occ. eigenvalues --   -0.39618  -0.38063  -0.34586  -0.33348  -0.30858
  Beta  occ. eigenvalues --   -0.26922  -0.26724  -0.24728  -0.16314  -0.15011
  Beta virt. eigenvalues --    0.09534   0.09592   0.10510   0.10792   0.11171
  Beta virt. eigenvalues --    0.13068   0.13383   0.16404   0.16661   0.18815
  Beta virt. eigenvalues --    0.19021   0.19470   0.20372   0.22110   0.22434

 Mulliken charges and spin densities:
               1          2
     1  C    0.764416  -1.061731
     2  C   -0.041397   0.284389
     3  C   -0.674989   0.004656
     4  C   -0.041397   0.284389
     5  C    0.764416  -1.061731
     6  C    1.646085  -1.944562
     7  H   -1.145152   1.405705
     8  H   -0.080806   0.319484
     9  H   -0.080806   0.319484
    10  H   -1.145152   1.405705
    11  H   -0.786658   1.035119
    12  F   -0.178558   0.009094
 Sum of Mulliken charges =  -1.00000   1.00000

 Dipole moment (field-independent basis, Debye):
    X=              0.0000    Y=             -5.9348    Z=             -0.0000  Tot=              5.9348
 Quadrupole moment (field-independent basis, Debye-Ang):
   XX=            -87.3986   YY=            -86.1437   ZZ=            -60.3973
   XY=             -0.0000   XZ=             -0.0000   YZ=             -0.0000

  Exact polarizability:4419.267  10.7302162.965  -0.014  -0.005 168.148
 Approx polarizability:3076.899   0.0001171.187   0.000   0.000 164.366

                      1                      2                      3
                      A                      A                      A
 Frequencies --    230.4798               397.4771               403.9228
 Red. masses --      5.1248                 2.9242                 6.0790
 Frc consts  --      0.1604                 0.2722                 0.5844
 IR Inten    --      6.8894                 0.0002                60.5299

                      4                      5                      6
                      A                      A                      A
 Frequencies --    495.5582               520.4319               616.4535
 Red. masses --      2.9196                 8.5234                 6.5564
 Frc consts  --      0.4224                 1.3602                 1.4680
 IR Inten    --    129.5631                66.5909                 1.5214

                      7                      8                      9
                      A                      A                      A
 Frequencies --    686.1420               794.0870               811.1926
 Red. masses --      2.9437                 1.4474                 6.3929
 Frc consts  --      0.8165                 0.5377                 2.4785
 IR Inten    --     45.8926               954.7952                18.8817

                     10                     11                     12
                      A                      A                      A
 Frequencies --    832.2824               915.4808               987.5978
 Red. masses --      1.2512                 1.3651                 1.3581
 Frc consts  --      0.5107                 0.6741                 0.7804
 IR Inten    --      0.0000               179.6584                 0.0001

                     13                     14                     15
                      A                      A                      A
 Frequencies --   1000.8491              1005.3779              1045.3869
 Red. masses --      5.3762                 1.2614                 2.0000
 Frc consts  --      3.1730                 0.7512                 1.2877
 IR Inten    --     14.1950               282.4670                 3.2533

                     16                     17                     18
                      A                      A                      A
 Frequencies --   1086.8211              1161.3189              1169.2858
 Red. masses --      1.3714                 1.1615                 1.0907
 Frc consts  --      0.9544                 0.9230                 0.8786
 IR Inten    --   1617.5924               846.2953                78.1822

                     19                     20                     21
                      A                      A                      A
 Frequencies --   1238.8769              1321.8413              1380.2949
 Red. masses --      3.6282                 1.3869                 7.6206
 Frc consts  --      3.2809                 1.4277                 8.5542
 IR Inten    --     87.2026                 9.0263                11.5788

                     22                     23                     24
                      A                      A                      A
 Frequencies --   1491.3879              1526.5137              1658.8180
 Red. masses --      2.3882                 2.5416                 6.5304
 Frc consts  --      3.1297                 3.4895                10.5874
 IR Inten    --    188.5418               113.0518               117.2941

                     25                     26                     27
                      A                      A                      A
 Frequencies --   1671.3615              3148.4964              3156.1589
 Red. masses --      7.1801                 1.0934                 1.0918
 Frc consts  --     11.8175                 6.3863                 6.4080
 IR Inten    --    316.7839                68.2408                41.4485

                     28                     29                     30
                      A                      A                      A
 Frequencies --   3160.4518              3175.2820              3181.3949
 Red. masses --      1.0919                 1.0923                 1.0925
 Frc consts  --      6.4257                 6.4884                 6.5146
 IR Inten    --    108.1883               169.6087               683.2332

 - Thermochemistry -
 -------------------
 Temperature   298.150 Kelvin.  Pressure   1.00000 Atm.
 Atom     1 has atomic number  6 and mass  12.00000

 Molecular mass:    96.03753 amu.
 Principal axes and moments of inertia in atomic units:
                           1         2         3
     Eigenvalues --   316.25773 700.990891017.24863
           X            0.00000   1.00000   0.00000
           Y            1.00000  -0.00000   0.00000
           Z           -0.00000  -0.00000   1.00000
 This molecule is an asymmetric top.
 Rotational symmetry number  1.
 Rotational temperatures (Kelvin)      0.27387     0.12356     0.08515
 Rotational constants (GHZ):           5.70655     2.57456     1.77414
 Zero-point vibrational energy     240874.2 (Joules/Mol)
                                   57.57032 (Kcal/Mol)
 Warning -- explicit consideration of   6 degrees of freedom as
           vibrations may cause significant error
 Vibrational temperatures:    331.61   571.88   581.15   713.00   748.79
          (Kelvin)            886.94   987.21  1142.51  1167.13  1197.47
                             1317.17  1420.93  1440.00  1446.51  1504.08
                             1563.69  1670.88  1682.34  1782.47  1901.83
                             1985.94  2145.77  2196.31  2386.67  2404.72
                             4529.98  4541.01  4547.19  4568.52  4577.32

 Zero-point correction=                           0.091744 (Hartree/Particle)
 Thermal correction to Energy=                    0.096945
 Thermal correction to Enthalpy=                  0.097889
 Thermal correction to Gibbs Free Energy=         0.062222
 Sum of electronic and zero-point Energies=           -331.085816
 Sum of electronic and thermal Energies=              -331.080615
 Sum of electronic and thermal Enthalpies=            -331.079671
 Sum of electronic and thermal Free Energies=         -331.115338

                     E (Thermal)             CV                S
                      KCal/Mol        Cal/Mol-Kelvin    Cal/Mol-Kelvin
 Total                   60.834             20.261             75.068
 Electronic               0.000              0.000              1.377
 Translational            0.889              2.981             39.597
 Rotational               0.889              2.981             26.914
 Vibrational             59.056             14.299              7.180
 Vibration     1          0.652              1.794              1.875
 Vibration     2          0.764              1.476              0.972
 Vibration     3          0.769              1.462              0.948
 Vibration     4          0.851              1.260              0.669
 Vibration     5          0.875              1.205              0.609
 Vibration     6          0.976              0.997              0.422

 Optimization completed.
    -- Stationary point found.
 Normal termination of Gaussian 16 at Wed Jan 29 15:43:11 2025.
