 Gaussian 16, Revision A.03,
 Gaussian 16:  ES64L-G16RevA.03 25-Dec-2016

 --------------------------------------------------------
 #p opt freq PBE1PBE/6-311++G(d,p) density=current nosymm
 --------------------------------------------------------

 ------
 MFB SP
 ------
 Symbolic Z-matrix:
 Charge =  1 Multiplicity = 2

 SCF Done:  E(UPBE1PBE) =  -330.858665111     A.U. after   16 cycles
 SCF Done:  E(UPBE1PBE) =  -330.866308940     A.U. after   15 cycles
 SCF Done:  E(UPBE1PBE) =  -330.866758879     A.U. after   12 cycles
 SCF Done:  E(UPBE1PBE) =  -330.866780115     A.U. after   12 cycles
 Optimization completed.
    -- Stationary point found.
 Normal termination of Gaussian 16 at Wed Jan 29 15:35:39 2025.

 ----------------------------------------------------------------------
 #P Geom=AllCheck Guess=TCheck SCRF=Check GenChk UPBE1PBE/6-311++G(d,p)
  Freq
 ----------------------------------------------------------------------

 Structure from the checkpoint file:  "MFB-CAT.chk"
 ------
 MFB SP
 ------
 Charge =  1 Multiplicity = 2

                          Input orientation:
 ---------------------------------------------------------------------
 Center     Atomic      Atomic             Coordinates (Angstroms)
 Number     Number       Type             X           Y           Z
 ---------------------------------------------------------------------
      1          6           0        1.242115    0.674524   -0.000000
      2          6           0        1.253985   -0.689552    0.000000
      3          6           0        0.000000   -1.359202    0.000000
      4          6           0       -1.253985   -0.689552   -0.000000
      5          6           0       -1.242115    0.674524    0.000000
      6          6           0       -0.000000    1.368368   -0.000000
      7          1           0        2.169145    1.236818    0.000000
      8          1           0        2.165560   -1.277230    0.000000
      9          1           0       -2.165560   -1.277230   -0.000000
     10          1           0       -2.169145    1.236818    0.000000
     11          1           0        0.000000    2.454169   -0.000000
     12          9           0        0.000000   -2.649289   -0.000000
 ---------------------------------------------------------------------

 SCF Done:  E(UPBE1PBE) =  -330.866780115     A.U. after    1 cycles

 Alpha  occ. eigenvalues --  -25.03064 -10.58406 -10.49620 -10.46973 -10.46972
 Alpha  occ. eigenvalues --  -10.46649 -10.46649  -1.52839  -1.13119  -1.02086
 Alpha  occ. eigenvalues --   -1.01171  -0.87677  -0.87582  -0.79933  -0.74756
 Alpha  occ. eigenvalues --   -0.74717  -0.74339  -0.67969  -0.67504  -0.64946
 Alpha  occ. eigenvalues --   -0.61882  -0.61461  -0.58196  -0.50847  -0.50713
 Alpha virt. eigenvalues --   -0.25788  -0.23455  -0.13874  -0.12205  -0.11024
 Alpha virt. eigenvalues --   -0.10172  -0.09177  -0.08125  -0.08095  -0.08064
 Alpha virt. eigenvalues --   -0.05282  -0.04453  -0.03986  -0.03240  -0.02245

  Beta  occ. eigenvalues --  -25.02673 -10.57842 -10.48882 -10.46855 -10.46853
  Beta  occ. eigenvalues --  -10.46691 -10.46691  -1.52007  -1.12039  -1.01844
  Beta  occ. eigenvalues --   -0.99142  -0.87128  -0.86748  -0.79582  -0.74381
  Beta  occ. eigenvalues --   -0.73886  -0.71801  -0.67537  -0.67455  -0.64589
  Beta  occ. eigenvalues --   -0.61195  -0.58571  -0.57857  -0.50347
  Beta virt. eigenvalues --   -0.39773  -0.21993  -0.21448  -0.13748  -0.11781
  Beta virt. eigenvalues --   -0.11024  -0.09987  -0.08271  -0.08053  -0.07857
  Beta virt. eigenvalues --   -0.06371  -0.05010  -0.04402  -0.03452  -0.03205

 Mulliken charges and spin densities:
               1          2
     1  C   -0.312004  -0.052797
     2  C    0.292169   0.069950
     3  C   -0.467664   0.391664
     4  C    0.292169   0.069950
     5  C   -0.312004  -0.052797
     6  C   -0.071956   0.544476
     7  H    0.303466  -0.000598
     8  H    0.321213  -0.007421
     9  H    0.321213  -0.007421
    10  H    0.303466  -0.000598
    11  H    0.304811  -0.030788
    12  F    0.025121   0.076381
 Sum of Mulliken charges =   1.00000   1.00000

 Dipole moment (field-independent basis, Debye):
    X=              0.0000    Y=              0.7363    Z=              0.0000  Tot=              0.7363
 Quadrupole moment (field-independent basis, Debye-Ang):
   XX=            -23.8071   YY=            -26.3947   ZZ=            -39.0755
   XY=             -0.0000   XZ=             -0.0000   YZ=             -0.0000

  Exact polarizability:  66.519   0.000  81.582   0.000  -0.000  31.915
 Approx polarizability:  96.673   0.000 139.366   0.000  -0.000  45.940

                      1                      2                      3
                      A                      A                      A
 Frequencies --    181.9281               352.0449               386.9941
 Red. masses --      4.7024                 3.0284                 2.6797
 Frc consts  --      0.0917                 0.2211                 0.2365
 IR Inten    --      0.3687                 0.0000                 0.8316

                      4                      5                      6
                      A                      A                      A
 Frequencies --    407.3683               514.0164               524.5768
 Red. masses --      6.2121                 8.3003                 7.4835
 Frc consts  --      0.6074                 1.2921                 1.2133
 IR Inten    --      4.6293                 3.9311                 1.2566

                      7                      8                      9
                      A                      A                      A
 Frequencies --    603.0609               785.7145               794.5365
 Red. masses --      1.8421                 1.2370                 2.0200
 Frc consts  --      0.3947                 0.4499                 0.7513
 IR Inten    --     29.8806                 0.0000                64.5192

                     10                     11                     12
                      A                      A                      A
 Frequencies --    817.2215               952.7287               983.5665
 Red. masses --      5.6459                 1.4873                 2.6347
 Frc consts  --      2.2216                 0.7954                 1.5017
 IR Inten    --      3.0043                15.0406                19.1218

                     13                     14                     15
                      A                      A                      A
 Frequencies --    995.2974               999.5577              1010.7029
 Red. masses --      1.2580                 4.9235                 1.3414
 Frc consts  --      0.7342                 2.8983                 0.8073
 IR Inten    --      1.5441                 2.0433                 0.0000

                     16                     17                     18
                      A                      A                      A
 Frequencies --   1092.0983              1158.9922              1190.1895
 Red. masses --      1.5626                 1.2395                 1.1206
 Frc consts  --      1.0981                 0.9810                 0.9353
 IR Inten    --     10.8747                 0.4335                 2.2038

                     19                     20                     21
                      A                      A                      A
 Frequencies --   1306.3730              1368.3824              1408.5263
 Red. masses --      1.7962                 2.8062                 2.0013
 Frc consts  --      1.8060                 3.0959                 2.3393
 IR Inten    --      8.7302                41.7740                 0.2886

                     22                     23                     24
                      A                      A                      A
 Frequencies --   1426.3074              1493.3474              1549.3303
 Red. masses --      3.6493                 2.7787                 3.2876
 Frc consts  --      4.3741                 3.6510                 4.6496
 IR Inten    --     25.0936               413.9646                42.2540

                     25                     26                     27
                      A                      A                      A
 Frequencies --   1697.1114              3214.4418              3225.0275
 Red. masses --      6.2428                 1.0908                 1.0910
 Frc consts  --     10.5938                 6.6408                 6.6853
 IR Inten    --     21.1259                 0.3800                 1.8474

                     28                     29                     30
                      A                      A                      A
 Frequencies --   3226.8159              3235.7008              3237.8225
 Red. masses --      1.0927                 1.0993                 1.1014
 Frc consts  --      6.7035                 6.7814                 6.8029
 IR Inten    --     13.3928                44.5141                 0.7460

 - Thermochemistry -
 -------------------
 Temperature   298.150 Kelvin.  Pressure   1.00000 Atm.
 Atom     1 has atomic number  6 and mass  12.00000

 Molecular mass:    96.03753 amu.
 Principal axes and moments of inertia in atomic units:
                           1         2         3
     Eigenvalues --   334.62522 673.409351008.03457
           X           -0.00000   1.00000  -0.00000
           Y            1.00000   0.00000  -0.00000
           Z            0.00000   0.00000   1.00000
 This molecule is an asymmetric top.
 Rotational symmetry number  1.
 Rotational temperatures (Kelvin)      0.25884     0.12862     0.08592
 Rotational constants (GHZ):           5.39332     2.68001     1.79036
 Zero-point vibrational energy     240089.2 (Joules/Mol)
                                   57.38270 (Kcal/Mol)
 Warning -- explicit consideration of   7 degrees of freedom as
           vibrations may cause significant error
 Vibrational temperatures:    261.75   506.51   556.80   586.11   739.55
          (Kelvin)            754.75   867.67  1130.47  1143.16  1175.80
                             1370.76  1415.13  1432.01  1438.14  1454.18
                             1571.29  1667.53  1712.42  1879.58  1968.80
                             2026.56  2052.14  2148.59  2229.14  2441.76
                             4624.86  4640.10  4642.67  4655.45  4658.50

 Zero-point correction=                           0.091445 (Hartree/Particle)
 Thermal correction to Energy=                    0.096966
 Thermal correction to Enthalpy=                  0.097911
 Thermal correction to Gibbs Free Energy=         0.061631
 Sum of electronic and zero-point Energies=           -330.775335
 Sum of electronic and thermal Energies=              -330.769814
 Sum of electronic and thermal Enthalpies=            -330.768870
 Sum of electronic and thermal Free Energies=         -330.805149

                     E (Thermal)             CV                S
                      KCal/Mol        Cal/Mol-Kelvin    Cal/Mol-Kelvin
 Total                   60.847             21.070             76.357
 Electronic               0.000              0.000              1.377
 Translational            0.889              2.981             39.597
 Rotational               0.889              2.981             26.921
 Vibrational             59.070             15.108              8.461
 Vibration     1          0.630              1.864              2.309
 Vibration     2          0.729              1.571              1.157
 Vibration     3          0.755              1.498              1.012
 Vibration     4          0.772              1.454              0.936
 Vibration     5          0.869              1.219              0.624
 Vibration     6          0.880              1.196              0.599
 Vibration     7          0.961              1.025              0.444

 Optimization completed.
    -- Stationary point found.
 Normal termination of Gaussian 16 at Wed Jan 29 15:41:03 2025.
