 Gaussian 16, Revision A.03,
 Gaussian 16:  ES64L-G16RevA.03 25-Dec-2016

 -----------------------------------------------
 #p PBE1PBE/6-311++G(d,p) density=current nosymm
 -----------------------------------------------

 ------
 MFB SP
 ------
 Symbolic Z-matrix:
 Charge =  0 Multiplicity = 1

                          Input orientation:
 ---------------------------------------------------------------------
 Center     Atomic      Atomic             Coordinates (Angstroms)
 Number     Number       Type             X           Y           Z
 ---------------------------------------------------------------------
      1          6           0        1.203089    0.691434   -0.000000
      2          6           0        1.212388   -0.699424    0.000000
      3          6           0        0.000000   -1.364533   -0.000000
      4          6           0       -1.212388   -0.699424    0.000000
      5          6           0       -1.203089    0.691434   -0.000000
      6          6           0        0.000000    1.389295    0.000000
      7          1           0        2.144955    1.229929    0.000000
      8          1           0        2.137136   -1.264724   -0.000000
      9          1           0       -2.137136   -1.264724   -0.000000
     10          1           0       -2.144955    1.229929    0.000000
     11          1           0        0.000000    2.473760    0.000000
     12          9           0        0.000000   -2.709786    0.000000
 ---------------------------------------------------------------------

 SCF Done:  E(RPBE1PBE) =  -331.199650748     A.U. after   13 cycles

 Alpha  occ. eigenvalues --  -24.78211 -10.31601 -10.24257 -10.24255 -10.23908
 Alpha  occ. eigenvalues --  -10.23907 -10.23543  -1.26555  -0.90031  -0.79067
 Alpha  occ. eigenvalues --   -0.78151  -0.65220  -0.64096  -0.57247  -0.52009
 Alpha  occ. eigenvalues --   -0.51366  -0.49119  -0.46814  -0.45367  -0.42228
 Alpha  occ. eigenvalues --   -0.39170  -0.38707  -0.36647  -0.28223  -0.26765
 Alpha virt. eigenvalues --   -0.02227  -0.00978   0.00104   0.01628   0.02206
 Alpha virt. eigenvalues --    0.04109   0.04183   0.06686   0.06731   0.08870
 Alpha virt. eigenvalues --    0.09471   0.09776   0.10703   0.11736   0.12635

 Mulliken charges:
               1
     1  C   -0.274166
     2  C    0.250083
     3  C   -0.637209
     4  C    0.250083
     5  C   -0.274166
     6  C   -0.278834
     7  H    0.216554
     8  H    0.237735
     9  H    0.237735
    10  H    0.216554
    11  H    0.200978
    12  F   -0.145349
 Sum of Mulliken charges =  -0.00000

 Dipole moment (field-independent basis, Debye):
    X=             -0.0000    Y=              1.6609    Z=             -0.0000  Tot=              1.6609
 Quadrupole moment (field-independent basis, Debye-Ang):
   XX=            -34.0666   YY=            -42.0749   ZZ=            -43.5461
   XY=              0.0000   XZ=              0.0000   YZ=              0.0000

 Normal termination of Gaussian 16 at Fri Jan 17 11:24:05 2025.
